72   
4    

1    
  0.0033829926570867  -0.0058595151637064   0.0073635210822264
  -0.0096079400    0.0162166200   -0.0198120600
   0.0001247000   -0.0004681600    0.0010217600
   0.0011615200   -0.0006851200    0.0004710100
  -0.0012807000   -0.0005728900    0.0003788100
   0.0004194200    0.0002749700    0.0011369800
   0.0000498100   -0.0000947200    0.0009495300
  -0.0002092000    0.0004856800    0.0006666500
   0.0000846400   -0.0001331100    0.0009657500
   0.0004009600   -0.0001148300    0.0008707900
   0.0000394100   -0.0000488400    0.0015179800
  -0.0000135200   -0.0000843300    0.0012471700
  -0.0001684200    0.0000485600    0.0014451700
   0.0001240600    0.0000078500    0.0014389000
   0.0000318500    0.0000376900    0.0012302800
  -0.0000605200   -0.0000002900    0.0012962400
   0.0000742500   -0.0001007000    0.0013481100
   0.0000470800    0.0000021800    0.0013078700
  -0.0000725600    0.0001196400    0.0013368900
   0.0000507400    0.0000158400    0.0025221800
  -0.0002866100    0.0001158200    0.0004141100
   0.0000243700   -0.0000724900    0.0011362500
   0.0000206200   -0.0000887900    0.0012545600
  -0.0001271500    0.0000966500    0.0011332700
   0.0000093900   -0.0000621200    0.0010797900
   0.0002019600    0.0000094500    0.0014819100
  -0.0000440700    0.0000492000    0.0010831400
   0.0000843200    0.0000689700    0.0011446200
   0.0000373300    0.0014374000    0.0014760500
   0.0009510200   -0.0005945800    0.0016424800
   0.0001129200   -0.0000257600    0.0012630900
  -0.0000659100   -0.0000290400    0.0012501000
  -0.0000658000    0.0001169300    0.0012109300
   0.0000231200   -0.0001510500    0.0012353000
  -0.0010485500   -0.0006932600    0.0015426000
  -0.0000464700   -0.0000106400    0.0012207300
   0.0000345500    0.0000809300    0.0012056400
  -0.0001396600    0.0002304400    0.0155234400
  -0.0001577300    0.0002947900   -0.0011821400
  -0.0000767500   -0.0000840900   -0.0009151400
   0.0000854400   -0.0001368100   -0.0009396300
  -0.0002950400   -0.0000515100   -0.0011602400
  -0.0000337600    0.0000560700   -0.0010952400
   0.0001869000    0.0001498700   -0.0010788700
  -0.0000105700    0.0000242800   -0.0010840600
   0.0001413600    0.0000093400   -0.0010393900
   0.0000807700   -0.0001279800   -0.0014435400
   0.0000017700    0.0001330200   -0.0011010800
  -0.0001223300    0.0000724100   -0.0014633900
   0.0001374000    0.0000297000   -0.0014881500
  -0.0001240200   -0.0001203400   -0.0010734600
  -0.0000500600    0.0000400900   -0.0012344600
   0.0000608700   -0.0000154700   -0.0013018200
   0.0000059400    0.0000282600   -0.0012294100
  -0.0000029500   -0.0000271500   -0.0012549200
  -0.0002324900   -0.0166102500    0.0043581000
   0.0055326200   -0.0028944900   -0.0041163100
  -0.0002653800    0.0004209400   -0.0011431100
   0.0001232800    0.0002110800   -0.0011292400
   0.0001311700   -0.0000630700   -0.0010808000
  -0.0002482100    0.0000319000   -0.0011315800
   0.0044162200    0.0031198500    0.0002154900
   0.0000673300    0.0000996800   -0.0010811700
  -0.0002562300    0.0000801500   -0.0010922100
   0.0000038600   -0.0002544500   -0.0015639200
  -0.0000891100    0.0000463200   -0.0013774400
  -0.0000396300    0.0000647500   -0.0011516300
  -0.0000097400    0.0000313000   -0.0011764100
   0.0000010400   -0.0000786800   -0.0011563100
  -0.0000497600    0.0000110600   -0.0011546700
   0.0001701000    0.0000937000   -0.0014728600
   0.0000514800    0.0000537600   -0.0011538800
  -0.0000047400   -0.0000221100   -0.0011451400

1    
 -0.0033829926570867   0.0058595151637064  -0.0073635210822264
   0.0096189500   -0.0171107900    0.0215827400
  -0.0001964100    0.0005597300    0.0011322400
  -0.0011586500    0.0006767700    0.0016916200
   0.0012922300    0.0005164300    0.0017801300
  -0.0005177800   -0.0003252800    0.0010749900
  -0.0000759200    0.0001263700    0.0012219100
   0.0003066800   -0.0004258100    0.0015129900
  -0.0000991800    0.0001910500    0.0012316500
  -0.0003514700    0.0000680700    0.0013628800
   0.0000229000   -0.0000252600    0.0009251400
   0.0000115500    0.0001045700    0.0012046400
   0.0001222100    0.0000032700    0.0010438500
  -0.0001482700   -0.0000652800    0.0010134100
  -0.0001123500   -0.0001178400    0.0012083200
  -0.0000623900   -0.0000062500    0.0011591900
   0.0000481800    0.0001282900    0.0011027400
   0.0000262100    0.0000534000    0.0011593800
   0.0000910200   -0.0000865200    0.0011364200
   0.0000078600   -0.0000287400   -0.0002907300
   0.0002282900   -0.0001425300    0.0017680000
  -0.0000516000    0.0001112400    0.0010320200
  -0.0000272300    0.0000504700    0.0010037200
   0.0000194900   -0.0000843100    0.0010893600
  -0.0000904300   -0.0000155400    0.0011273200
  -0.0000620300   -0.0000539100    0.0007532500
   0.0000773300    0.0000516700    0.0011076300
  -0.0000328800    0.0000103400    0.0010288300
   0.0000024900   -0.0014680700    0.0008245600
  -0.0009818800    0.0005558000    0.0006393400
  -0.0001509600    0.0000931200    0.0010780600
   0.0000645400    0.0000313300    0.0010469600
   0.0000091500   -0.0001362500    0.0010956000
  -0.0000944200    0.0000978300    0.0010632800
   0.0011521200    0.0006516600    0.0007129600
   0.0000846100    0.0001047400    0.0010765000
  -0.0000188600   -0.0000331100    0.0011183200
   0.0001156100   -0.0002129800   -0.0171728900
   0.0001319700   -0.0002525400   -0.0010899600
   0.0000750200    0.0000831700   -0.0013637500
  -0.0000804100    0.0001218700   -0.0013457500
   0.0002537700    0.0000266900   -0.0011101500
   0.0000262900   -0.0000450300   -0.0011998000
  -0.0001539200   -0.0001330100   -0.0012153000
   0.0000056500   -0.0000018600   -0.0011956900
  -0.0001316800   -0.0000312800   -0.0012613700
  -0.0000509900    0.0000975600   -0.0008655700
  -0.0000086000   -0.0001189100   -0.0012171800
   0.0001111800   -0.0000567900   -0.0008519300
  -0.0001528200   -0.0000446300   -0.0008110700
   0.0000652300    0.0000853700   -0.0012567100
   0.0000073200   -0.0000641900   -0.0010914200
  -0.0000081400    0.0000127700   -0.0009880000
   0.0000199000    0.0000123900   -0.0011067500
   0.0000298700    0.0000460500   -0.0010729500
   0.0003048600    0.0173508800   -0.0068986800
  -0.0055572100    0.0028844100    0.0017171700
   0.0002633300   -0.0003895400   -0.0012076000
  -0.0001249000   -0.0002036000   -0.0012095900
  -0.0001644000    0.0000742200   -0.0012435800
   0.0002358100   -0.0000697900   -0.0011752400
  -0.0043358500   -0.0031747700   -0.0024941100
  -0.0000640200   -0.0000527200   -0.0012574700
   0.0002697900   -0.0000686200   -0.0012453300
   0.0000117100    0.0002381500   -0.0006564400
   0.0000847300   -0.0000656800   -0.0008373000
   0.0000187100   -0.0000315900   -0.0010432600
  -0.0000103700   -0.0000347100   -0.0010560200
  -0.0000112800    0.0000634400   -0.0010665300
   0.0000050500   -0.0000299300   -0.0010636400
  -0.0001220700   -0.0000958200   -0.0007490400
  -0.0000109000   -0.0000329400   -0.0010578400
  -0.0000013500    0.0000533000   -0.0010584500

37   
  0.0033829926570867  -0.0058595151637064   0.0073635210822264
  -0.0000935900    0.0001577100    0.0170748700
  -0.0000282900    0.0000378700    0.0012954300
  -0.0001977100    0.0001705800    0.0010043200
   0.0002190700    0.0001290500    0.0011111000
  -0.0000318500   -0.0000482700    0.0012195500
  -0.0000152500    0.0000181500    0.0011320300
   0.0000410100   -0.0001086500    0.0012722500
  -0.0000262200    0.0000619800    0.0011371600
  -0.0001139800   -0.0000020600    0.0010843700
   0.0000865700   -0.0001262100    0.0009659900
   0.0000568400    0.0003590500    0.0011362900
   0.0001051800    0.0000135600    0.0011565200
  -0.0001178600   -0.0000596000    0.0011405000
  -0.0003334600   -0.0003010200    0.0011206800
  -0.0000789700   -0.0000007700    0.0011963100
   0.0000424900    0.0002277200    0.0011416400
   0.0000253400    0.0000696100    0.0011958300
   0.0002003900   -0.0001715600    0.0011410200
   0.0000189100   -0.0001845500    0.0006590400
  -0.0000570700    0.0000196600    0.0008887700
  -0.0000332200    0.0000550600    0.0010383400
  -0.0000162600    0.0000023200    0.0010945300
  -0.0000340800   -0.0000444800    0.0010819300
  -0.0000685300   -0.0000232900    0.0010637800
   0.0001589800    0.0000587700    0.0007929600
   0.0000502300    0.0000555500    0.0010785200
   0.0000155900    0.0000213400    0.0010352300
  -0.0002521900   -0.0062227900   -0.0017850200
   0.0152168800   -0.0084441300    0.0068170900
  -0.0002205600    0.0004409800    0.0011740400
   0.0000536300    0.0002263000    0.0011192500
   0.0000276600   -0.0001332800    0.0012041000
  -0.0002666700   -0.0000249100    0.0011757200
  -0.0049128300   -0.0022037000    0.0024135700
   0.0000911800    0.0002057600    0.0011289000
  -0.0001438400    0.0000383300    0.0012853400
  -0.0157649800    0.0267998100   -0.0344220200
   0.0016829000   -0.0028051600   -0.0013271200
   0.0018442200   -0.0024645200   -0.0011302900
  -0.0009699000   -0.0013113400   -0.0013527200
   0.0018064000   -0.0002479200   -0.0011041600
   0.0000324900   -0.0000572500   -0.0011847600
  -0.0007930500   -0.0013228800   -0.0014598200
   0.0000344700   -0.0000531000   -0.0011728500
   0.0013569000   -0.0004021700   -0.0010230100
   0.0000083700    0.0000037300   -0.0010905500
   0.0000085600   -0.0000274200   -0.0009200000
   0.0000711200   -0.0000250800   -0.0009512400
  -0.0001026800   -0.0000322300   -0.0009489000
  -0.0000035900    0.0000051500   -0.0009199700
  -0.0000184000   -0.0000313700   -0.0011278700
   0.0000044100    0.0000282600   -0.0009266000
   0.0000246800    0.0000120100   -0.0011364300
   0.0000360000    0.0000112900   -0.0009345700
  -0.0000935800   -0.0025094700    0.0019047500
  -0.0005893900    0.0004460400    0.0002528900
   0.0000516900   -0.0000432700   -0.0011746600
  -0.0000376000   -0.0000221300   -0.0011880600
  -0.0000675900    0.0000050800   -0.0011426700
   0.0000318900   -0.0000323900   -0.0011252200
   0.0013161200    0.0009790300    0.0010972700
  -0.0000093200    0.0000359600   -0.0011845400
   0.0000777200   -0.0000206100   -0.0011209200
  -0.0000997900    0.0001423100   -0.0001341500
   0.0017641300   -0.0009016800    0.0024799300
   0.0000043600   -0.0000590700   -0.0010767300
  -0.0000157800   -0.0000465800   -0.0010908300
   0.0000193200    0.0000266500   -0.0010798300
   0.0000098100    0.0000191700   -0.0011020400
  -0.0009988500   -0.0003381800    0.0011653500
   0.0000166400   -0.0000622600   -0.0010402800
  -0.0000052300    0.0000314900   -0.0010993000

37   
 -0.0033829926570867   0.0058595151637064  -0.0073635210822264
   0.0001978900   -0.0003486100   -0.0155900400
  -0.0000434800    0.0000608100    0.0008526500
   0.0002070500   -0.0001857500    0.0011592900
  -0.0002124600   -0.0001907300    0.0010445200
  -0.0000758600   -0.0000042100    0.0009858300
  -0.0000115300    0.0000132700    0.0010354100
   0.0000562600    0.0001732000    0.0009037500
   0.0000108300   -0.0000040900    0.0010579300
   0.0001726400   -0.0000461900    0.0011483200
  -0.0000231900    0.0000551800    0.0014871100
  -0.0000529100   -0.0003402200    0.0013290800
  -0.0001544700    0.0000407300    0.0013447300
   0.0000917600    0.0000004600    0.0013246800
   0.0002483300    0.0002164400    0.0013279800
  -0.0000518000   -0.0000087600    0.0012717300
   0.0000832300   -0.0002019100    0.0013241200
   0.0000536900   -0.0000121100    0.0012852300
  -0.0001788500    0.0002105300    0.0013427200
   0.0000430800    0.0001661900    0.0015734300
   0.0000010600   -0.0000438900    0.0012899300
   0.0000062700   -0.0000138100    0.0011215300
   0.0000094100   -0.0000450600    0.0011624900
  -0.0000809400    0.0000562000    0.0011364200
  -0.0000181800   -0.0000571800    0.0011398500
  -0.0000137000   -0.0001000500    0.0014448600
  -0.0000160800    0.0000476900    0.0011059700
   0.0000402100    0.0000594900    0.0011303000
   0.0003229000    0.0062228700    0.0041502100
  -0.0145140200    0.0080531500   -0.0043592900
   0.0001819000   -0.0003735400    0.0011649600
  -0.0000574300   -0.0002246600    0.0011713100
  -0.0000888900    0.0001125600    0.0011005500
   0.0001933600   -0.0000309100    0.0011218400
   0.0049839300    0.0021793800   -0.0002010800
  -0.0000508800   -0.0001108200    0.0011675300
   0.0001657500    0.0000093000    0.0010361900
   0.0149778000   -0.0264394200    0.0325816100
  -0.0016922000    0.0028160400   -0.0009537700
  -0.0018623700    0.0024767600   -0.0011519300
   0.0009809800    0.0012948600   -0.0009371900
  -0.0018493600    0.0002188200   -0.0011657700
  -0.0000409200    0.0000691100   -0.0011126300
   0.0008257800    0.0013375000   -0.0008441200
  -0.0000392000    0.0000739100   -0.0011074200
  -0.0013303700    0.0003770100   -0.0012771200
   0.0000253700   -0.0000338100   -0.0012138400
  -0.0000145300    0.0000412400   -0.0013992000
  -0.0000828000    0.0000420300   -0.0013656800
   0.0000862700    0.0000169000   -0.0013509600
  -0.0000585000   -0.0000407200   -0.0014114600
  -0.0000276400    0.0000047900   -0.0012004900
   0.0000508300   -0.0000337100   -0.0013632500
   0.0000033800    0.0000309500   -0.0012041300
  -0.0000088000    0.0000114400   -0.0013949900
   0.0001192400    0.0025305700   -0.0042910300
   0.0005456800   -0.0004546300   -0.0025868700
  -0.0000513900    0.0000760200   -0.0011789100
   0.0000339500    0.0000285700   -0.0011532500
   0.0000295800    0.0000053300   -0.0011815000
  -0.0000455100   -0.0000080600   -0.0011807900
  -0.0012738200   -0.0010109200   -0.0034246200
   0.0000123100    0.0000156100   -0.0011572700
  -0.0000618600    0.0000318200   -0.0012177500
   0.0001149300   -0.0001624400   -0.0020948400
  -0.0017399300    0.0008729300   -0.0046267800
  -0.0000259200    0.0000940700   -0.0011106200
  -0.0000067500    0.0000418100   -0.0011360400
  -0.0000289600   -0.0000438400   -0.0011377800
  -0.0000583100   -0.0000382700   -0.0011117800
   0.0010407800    0.0003409800   -0.0033672000
   0.0000279500    0.0000806100   -0.0011645100
  -0.0000005600    0.0000012300   -0.0010981700
