phonopy:
  version: "2.38.2"
  frequency_unit_conversion_factor: 15.633302
  symmetry_tolerance: 1.00000e-05
  configuration:
    force_constants: "WRITE"
    dim: "2 2 2"
    full_force_constants: ".true."

physical_unit:
  atomic_mass: "AMU"
  length: "angstrom"
  force: "eV/angstrom"
  force_constants: "eV/angstrom^2"

space_group:
  type: "Fm-3m"
  number: 225
  Hall_symbol: "-F 4 2 3"

supercell_matrix:
- [   2,   0,   0 ]
- [   0,   2,   0 ]
- [   0,   0,   2 ]

primitive_cell:
  lattice:
  - [     3.635108843122618,     0.000000000000000,     0.000000000000000 ] # a
  - [    -0.000000000000000,     3.635108843122618,     0.000000000000000 ] # b
  - [     0.000000000000000,     0.000000000000000,     3.635108843122618 ] # c
  points:
  - symbol: Cu # 1
    coordinates: [  0.000000000000000,  0.000000000000000,  0.000000000000000 ]
    mass: 63.546000
  - symbol: Cu # 2
    coordinates: [  0.000000000000000,  0.500000000000000,  0.500000000000000 ]
    mass: 63.546000
  - symbol: Cu # 3
    coordinates: [  0.500000000000000,  0.000000000000000,  0.500000000000000 ]
    mass: 63.546000
  - symbol: Cu # 4
    coordinates: [  0.500000000000000,  0.500000000000000,  0.000000000000000 ]
    mass: 63.546000
  reciprocal_lattice: # without 2pi
  - [     0.275094926494961,     0.000000000000000,     0.000000000000000 ] # a*
  - [     0.000000000000000,     0.275094926494961,     0.000000000000000 ] # b*
  - [    -0.000000000000000,    -0.000000000000000,     0.275094926494961 ] # c*

unit_cell:
  lattice:
  - [     3.635108843122618,     0.000000000000000,     0.000000000000000 ] # a
  - [    -0.000000000000000,     3.635108843122618,     0.000000000000000 ] # b
  - [     0.000000000000000,     0.000000000000000,     3.635108843122618 ] # c
  points:
  - symbol: Cu # 1
    coordinates: [  0.000000000000000,  0.000000000000000,  0.000000000000000 ]
    mass: 63.546000
    reduced_to: 1
  - symbol: Cu # 2
    coordinates: [  0.000000000000000,  0.500000000000000,  0.500000000000000 ]
    mass: 63.546000
    reduced_to: 2
  - symbol: Cu # 3
    coordinates: [  0.500000000000000,  0.000000000000000,  0.500000000000000 ]
    mass: 63.546000
    reduced_to: 3
  - symbol: Cu # 4
    coordinates: [  0.500000000000000,  0.500000000000000,  0.000000000000000 ]
    mass: 63.546000
    reduced_to: 4

supercell:
  lattice:
  - [     7.270217686245235,     0.000000000000000,     0.000000000000000 ] # a
  - [    -0.000000000000000,     7.270217686245235,     0.000000000000000 ] # b
  - [     0.000000000000000,     0.000000000000000,     7.270217686245235 ] # c
  points:
  - symbol: Cu # 1
    coordinates: [  0.000000000000000,  0.000000000000000,  0.000000000000000 ]
    mass: 63.546000
    reduced_to: 1
  - symbol: Cu # 2
    coordinates: [  0.500000000000000,  0.000000000000000,  0.000000000000000 ]
    mass: 63.546000
    reduced_to: 1
  - symbol: Cu # 3
    coordinates: [  0.000000000000000,  0.500000000000000,  0.000000000000000 ]
    mass: 63.546000
    reduced_to: 1
  - symbol: Cu # 4
    coordinates: [  0.500000000000000,  0.500000000000000,  0.000000000000000 ]
    mass: 63.546000
    reduced_to: 1
  - symbol: Cu # 5
    coordinates: [  0.000000000000000,  0.000000000000000,  0.500000000000000 ]
    mass: 63.546000
    reduced_to: 1
  - symbol: Cu # 6
    coordinates: [  0.500000000000000,  0.000000000000000,  0.500000000000000 ]
    mass: 63.546000
    reduced_to: 1
  - symbol: Cu # 7
    coordinates: [  0.000000000000000,  0.500000000000000,  0.500000000000000 ]
    mass: 63.546000
    reduced_to: 1
  - symbol: Cu # 8
    coordinates: [  0.500000000000000,  0.500000000000000,  0.500000000000000 ]
    mass: 63.546000
    reduced_to: 1
  - symbol: Cu # 9
    coordinates: [  0.000000000000000,  0.250000000000000,  0.250000000000000 ]
    mass: 63.546000
    reduced_to: 9
  - symbol: Cu # 10
    coordinates: [  0.500000000000000,  0.250000000000000,  0.250000000000000 ]
    mass: 63.546000
    reduced_to: 9
  - symbol: Cu # 11
    coordinates: [  0.000000000000000,  0.750000000000000,  0.250000000000000 ]
    mass: 63.546000
    reduced_to: 9
  - symbol: Cu # 12
    coordinates: [  0.500000000000000,  0.750000000000000,  0.250000000000000 ]
    mass: 63.546000
    reduced_to: 9
  - symbol: Cu # 13
    coordinates: [  0.000000000000000,  0.250000000000000,  0.750000000000000 ]
    mass: 63.546000
    reduced_to: 9
  - symbol: Cu # 14
    coordinates: [  0.500000000000000,  0.250000000000000,  0.750000000000000 ]
    mass: 63.546000
    reduced_to: 9
  - symbol: Cu # 15
    coordinates: [  0.000000000000000,  0.750000000000000,  0.750000000000000 ]
    mass: 63.546000
    reduced_to: 9
  - symbol: Cu # 16
    coordinates: [  0.500000000000000,  0.750000000000000,  0.750000000000000 ]
    mass: 63.546000
    reduced_to: 9
  - symbol: Cu # 17
    coordinates: [  0.250000000000000,  0.000000000000000,  0.250000000000000 ]
    mass: 63.546000
    reduced_to: 17
  - symbol: Cu # 18
    coordinates: [  0.750000000000000,  0.000000000000000,  0.250000000000000 ]
    mass: 63.546000
    reduced_to: 17
  - symbol: Cu # 19
    coordinates: [  0.250000000000000,  0.500000000000000,  0.250000000000000 ]
    mass: 63.546000
    reduced_to: 17
  - symbol: Cu # 20
    coordinates: [  0.750000000000000,  0.500000000000000,  0.250000000000000 ]
    mass: 63.546000
    reduced_to: 17
  - symbol: Cu # 21
    coordinates: [  0.250000000000000,  0.000000000000000,  0.750000000000000 ]
    mass: 63.546000
    reduced_to: 17
  - symbol: Cu # 22
    coordinates: [  0.750000000000000,  0.000000000000000,  0.750000000000000 ]
    mass: 63.546000
    reduced_to: 17
  - symbol: Cu # 23
    coordinates: [  0.250000000000000,  0.500000000000000,  0.750000000000000 ]
    mass: 63.546000
    reduced_to: 17
  - symbol: Cu # 24
    coordinates: [  0.750000000000000,  0.500000000000000,  0.750000000000000 ]
    mass: 63.546000
    reduced_to: 17
  - symbol: Cu # 25
    coordinates: [  0.250000000000000,  0.250000000000000,  0.000000000000000 ]
    mass: 63.546000
    reduced_to: 25
  - symbol: Cu # 26
    coordinates: [  0.750000000000000,  0.250000000000000,  0.000000000000000 ]
    mass: 63.546000
    reduced_to: 25
  - symbol: Cu # 27
    coordinates: [  0.250000000000000,  0.750000000000000,  0.000000000000000 ]
    mass: 63.546000
    reduced_to: 25
  - symbol: Cu # 28
    coordinates: [  0.750000000000000,  0.750000000000000,  0.000000000000000 ]
    mass: 63.546000
    reduced_to: 25
  - symbol: Cu # 29
    coordinates: [  0.250000000000000,  0.250000000000000,  0.500000000000000 ]
    mass: 63.546000
    reduced_to: 25
  - symbol: Cu # 30
    coordinates: [  0.750000000000000,  0.250000000000000,  0.500000000000000 ]
    mass: 63.546000
    reduced_to: 25
  - symbol: Cu # 31
    coordinates: [  0.250000000000000,  0.750000000000000,  0.500000000000000 ]
    mass: 63.546000
    reduced_to: 25
  - symbol: Cu # 32
    coordinates: [  0.750000000000000,  0.750000000000000,  0.500000000000000 ]
    mass: 63.546000
    reduced_to: 25
