  32   32
1 1
     8.946456416928408    -1.058231259986443     0.000000000000001
    -1.058231259986442     8.946456416928408     0.000000000000001
    -0.000000000000000    -0.000000000000000     5.984979373127384
1 2
     0.065895988045555     0.000498510280737     0.000000000000000
     0.000498510280737     0.065895988045555     0.000000000000000
     0.000000000000000     0.000000000000000    -0.076250859749251
1 3
     0.064762495875313    -0.000808223050896     0.000000000000000
     0.001018940871690    -0.108716960500650    -0.000000000000000
    -0.000000000000000    -0.000000000000000     0.076747602263035
1 4
     0.012578015423746     0.005723322286924     0.000000000000000
    -0.005581193823905    -0.026585093652271    -0.000000000000000
     0.000000000000000    -0.000000000000000    -0.020742623872717
1 5
    -0.108716960500650     0.001018940871690    -0.000000000000000
    -0.000808223050896     0.064762495875313     0.000000000000000
    -0.000000000000000     0.000000000000000     0.076747602263035
1 6
    -0.026585093652271    -0.005581193823905    -0.000000000000000
     0.005723322286924     0.012578015423746     0.000000000000000
    -0.000000000000000     0.000000000000000    -0.020742623872717
1 7
    -0.056014877885255     0.023405941564056    -0.000000000000000
     0.023405941564056    -0.056014877885255    -0.000000000000000
    -0.000000000000000    -0.000000000000000     0.003828983220125
1 8
    -0.006629833180405    -0.000950351513915    -0.000000000000000
    -0.000950351513915    -0.006629833180405    -0.000000000000000
    -0.000000000000000    -0.000000000000000     0.008478917413208
1 9
     0.112443766790894    -0.013362903950863    -0.008594882925322
    -0.016502811612722    -0.905250122090295    -1.079565025128230
    -0.011041118834837    -1.060918972861732    -0.952760449941524
1 10
     0.112443766790894    -0.013362903950863     0.008594882925322
    -0.016502811612722    -0.905250122090295     1.079565025128230
     0.011041118834837     1.060918972861732    -0.952760449941524
1 11
     0.078419909800541    -0.014445837986250     0.011814693653455
    -0.012021522386952    -0.686291325315366     0.771270711171584
     0.009781938434239     0.762810178534687    -0.654759312621915
1 12
     0.078419909800541    -0.014445837986251    -0.011814693653455
    -0.012021522386952    -0.686291325315366    -0.771270711171584
    -0.009781938434239    -0.762810178534687    -0.654759312621915
1 13
    -0.065657693060295    -0.009237289436030    -0.000988888833489
    -0.001672661090897    -0.025168405216163    -0.014425685442987
    -0.007285497943260    -0.016495740544910    -0.027200453328598
1 14
    -0.065657693060295    -0.009237289436030     0.000988888833489
    -0.001672661090897    -0.025168405216163     0.014425685442987
     0.007285497943260     0.016495740544910    -0.027200453328598
1 15
    -0.053569702635911     0.000254558441227    -0.002451185656983
     0.001038032754782    -0.026055470673162     0.012148801607566
    -0.002275823175249     0.011718173577823    -0.024171914984776
1 16
    -0.053569702635911     0.000254558441227     0.002451185656983
     0.001038032754782    -0.026055470673162    -0.012148801607566
     0.002275823175249    -0.011718173577823    -0.024171914984776
1 17
    -0.905250122090295    -0.016502811612722    -1.079565025128230
    -0.013362903950863     0.112443766790894    -0.008594882925322
    -1.060918972861732    -0.011041118834837    -0.952760449941524
1 18
    -0.905250122090295    -0.016502811612722     1.079565025128230
    -0.013362903950863     0.112443766790894     0.008594882925322
     1.060918972861732     0.011041118834837    -0.952760449941524
1 19
    -0.025168405216163    -0.001672661090897    -0.014425685442987
    -0.009237289436030    -0.065657693060295    -0.000988888833489
    -0.016495740544910    -0.007285497943260    -0.027200453328598
1 20
    -0.025168405216163    -0.001672661090897     0.014425685442987
    -0.009237289436030    -0.065657693060295     0.000988888833489
     0.016495740544910     0.007285497943260    -0.027200453328598
1 21
    -0.686291325315366    -0.012021522386952     0.771270711171584
    -0.014445837986251     0.078419909800541     0.011814693653455
     0.762810178534687     0.009781938434239    -0.654759312621915
1 22
    -0.686291325315366    -0.012021522386952    -0.771270711171584
    -0.014445837986251     0.078419909800541    -0.011814693653455
    -0.762810178534687    -0.009781938434239    -0.654759312621915
1 23
    -0.026055470673162     0.001038032754782     0.012148801607566
     0.000254558441227    -0.053569702635911    -0.002451185656983
     0.011718173577823    -0.002275823175249    -0.024171914984776
1 24
    -0.026055470673162     0.001038032754782    -0.012148801607566
     0.000254558441227    -0.053569702635911     0.002451185656983
    -0.011718173577823     0.002275823175249    -0.024171914984776
1 25
    -1.097211935512913    -1.251637692563023    -0.000000000000000
    -1.251637692563023    -1.097211935512913    -0.000000000000000
    -0.000000000000000    -0.000000000000000     0.126371295506535
1 26
    -0.028095473736885    -0.018945511988331    -0.000000000000000
    -0.018945511988331    -0.028095473736885    -0.000000000000000
    -0.000000000000000    -0.000000000000000    -0.077700428650684
1 27
    -1.561565423184211     1.957289247993887     0.000000000000000
     1.940326463420002    -1.731419543093031     0.000000000000000
    -0.000000000000000     0.000000000000000     0.285348345353753
1 28
    -0.024019003143345     0.020892884063719    -0.000000000000000
     0.021447255780169    -0.023381899933495    -0.000000000000000
    -0.000000000000000     0.000000000000000    -0.082397738998106
1 29
    -1.731419543093031     1.940326463420002     0.000000000000000
     1.957289247993887    -1.561565423184211     0.000000000000000
    -0.000000000000000     0.000000000000000     0.285348345353753
1 30
    -0.023381899933495     0.021447255780169    -0.000000000000000
     0.020892884063719    -0.024019003143345    -0.000000000000000
    -0.000000000000000     0.000000000000000    -0.082397738998106
1 31
    -1.257765479928786    -1.479529015751291    -0.000000000000000
    -1.479529015751291    -1.257765479928786    -0.000000000000000
     0.000000000000000    -0.000000000000000     0.225348567203121
1 32
    -0.026027186401914    -0.023019861261528     0.000000000000000
    -0.023019861261528    -0.026027186401914    -0.000000000000000
    -0.000000000000000    -0.000000000000000    -0.077398494055117
2 1
     0.065895988045555     0.000498510280737     0.000000000000000
     0.000498510280737     0.065895988045555     0.000000000000000
     0.000000000000000     0.000000000000000    -0.076250859749251
2 2
     8.946456416928408    -1.058231259986443     0.000000000000001
    -1.058231259986442     8.946456416928408     0.000000000000001
    -0.000000000000000     0.000000000000000     5.984979373127384
2 3
     0.012578015423746     0.005723322286924     0.000000000000000
    -0.005581193823905    -0.026585093652271    -0.000000000000000
     0.000000000000000    -0.000000000000000    -0.020742623872717
2 4
     0.064762495875313    -0.000808223050896     0.000000000000000
     0.001018940871690    -0.108716960500650    -0.000000000000000
    -0.000000000000000     0.000000000000000     0.076747602263035
2 5
    -0.026585093652271    -0.005581193823905    -0.000000000000000
     0.005723322286924     0.012578015423746     0.000000000000000
    -0.000000000000000     0.000000000000000    -0.020742623872717
2 6
    -0.108716960500650     0.001018940871690    -0.000000000000000
    -0.000808223050896     0.064762495875313     0.000000000000000
    -0.000000000000000     0.000000000000000     0.076747602263035
2 7
    -0.006629833180405    -0.000950351513915    -0.000000000000000
    -0.000950351513915    -0.006629833180405    -0.000000000000000
    -0.000000000000000    -0.000000000000000     0.008478917413208
2 8
    -0.056014877885255     0.023405941564056    -0.000000000000000
     0.023405941564056    -0.056014877885255    -0.000000000000000
    -0.000000000000000     0.000000000000000     0.003828983220125
2 9
     0.112443766790894    -0.013362903950863     0.008594882925322
    -0.016502811612722    -0.905250122090295     1.079565025128230
     0.011041118834837     1.060918972861732    -0.952760449941524
2 10
     0.112443766790894    -0.013362903950863    -0.008594882925322
    -0.016502811612722    -0.905250122090295    -1.079565025128230
    -0.011041118834837    -1.060918972861732    -0.952760449941524
2 11
     0.078419909800541    -0.014445837986251    -0.011814693653455
    -0.012021522386952    -0.686291325315366    -0.771270711171584
    -0.009781938434239    -0.762810178534687    -0.654759312621915
2 12
     0.078419909800541    -0.014445837986250     0.011814693653455
    -0.012021522386952    -0.686291325315366     0.771270711171584
     0.009781938434239     0.762810178534687    -0.654759312621915
2 13
    -0.065657693060295    -0.009237289436030     0.000988888833489
    -0.001672661090897    -0.025168405216163     0.014425685442987
     0.007285497943260     0.016495740544910    -0.027200453328598
2 14
    -0.065657693060295    -0.009237289436030    -0.000988888833489
    -0.001672661090897    -0.025168405216163    -0.014425685442987
    -0.007285497943260    -0.016495740544910    -0.027200453328598
2 15
    -0.053569702635911     0.000254558441227     0.002451185656983
     0.001038032754782    -0.026055470673162    -0.012148801607566
     0.002275823175249    -0.011718173577823    -0.024171914984776
2 16
    -0.053569702635911     0.000254558441227    -0.002451185656983
     0.001038032754782    -0.026055470673162     0.012148801607566
    -0.002275823175249     0.011718173577823    -0.024171914984776
2 17
    -0.905250122090295    -0.016502811612722     1.079565025128230
    -0.013362903950863     0.112443766790894     0.008594882925322
     1.060918972861732     0.011041118834837    -0.952760449941524
2 18
    -0.905250122090295    -0.016502811612722    -1.079565025128230
    -0.013362903950863     0.112443766790894    -0.008594882925322
    -1.060918972861732    -0.011041118834837    -0.952760449941524
2 19
    -0.025168405216163    -0.001672661090897     0.014425685442987
    -0.009237289436030    -0.065657693060295     0.000988888833489
     0.016495740544910     0.007285497943260    -0.027200453328598
2 20
    -0.025168405216163    -0.001672661090897    -0.014425685442987
    -0.009237289436030    -0.065657693060295    -0.000988888833489
    -0.016495740544910    -0.007285497943260    -0.027200453328598
2 21
    -0.686291325315366    -0.012021522386952    -0.771270711171584
    -0.014445837986251     0.078419909800541    -0.011814693653455
    -0.762810178534687    -0.009781938434239    -0.654759312621915
2 22
    -0.686291325315366    -0.012021522386952     0.771270711171584
    -0.014445837986251     0.078419909800541     0.011814693653455
     0.762810178534687     0.009781938434239    -0.654759312621915
2 23
    -0.026055470673162     0.001038032754782    -0.012148801607566
     0.000254558441227    -0.053569702635911     0.002451185656983
    -0.011718173577823     0.002275823175249    -0.024171914984776
2 24
    -0.026055470673162     0.001038032754782     0.012148801607566
     0.000254558441227    -0.053569702635911    -0.002451185656983
     0.011718173577823    -0.002275823175249    -0.024171914984776
2 25
    -0.028095473736885    -0.018945511988331    -0.000000000000000
    -0.018945511988331    -0.028095473736885    -0.000000000000000
     0.000000000000000     0.000000000000000    -0.077700428650684
2 26
    -1.097211935512913    -1.251637692563023    -0.000000000000000
    -1.251637692563023    -1.097211935512913    -0.000000000000000
    -0.000000000000000     0.000000000000000     0.126371295506535
2 27
    -0.024019003143345     0.020892884063719    -0.000000000000000
     0.021447255780169    -0.023381899933495    -0.000000000000000
    -0.000000000000000     0.000000000000000    -0.082397738998106
2 28
    -1.561565423184211     1.957289247993887     0.000000000000000
     1.940326463420002    -1.731419543093031     0.000000000000000
    -0.000000000000000     0.000000000000000     0.285348345353753
2 29
    -0.023381899933495     0.021447255780169    -0.000000000000000
     0.020892884063719    -0.024019003143345    -0.000000000000000
    -0.000000000000000     0.000000000000000    -0.082397738998106
2 30
    -1.731419543093031     1.940326463420002     0.000000000000000
     1.957289247993887    -1.561565423184211     0.000000000000000
    -0.000000000000000     0.000000000000000     0.285348345353753
2 31
    -0.026027186401914    -0.023019861261528     0.000000000000000
    -0.023019861261528    -0.026027186401914    -0.000000000000000
    -0.000000000000000    -0.000000000000000    -0.077398494055117
2 32
    -1.257765479928786    -1.479529015751291    -0.000000000000000
    -1.479529015751291    -1.257765479928786    -0.000000000000000
     0.000000000000000    -0.000000000000000     0.225348567203121
3 1
     0.064762495875313     0.000808223050896     0.000000000000000
    -0.001018940871690    -0.108716960500650     0.000000000000000
     0.000000000000000    -0.000000000000000     0.076747602263035
3 2
     0.012578015423746    -0.005723322286924     0.000000000000000
     0.005581193823905    -0.026585093652271     0.000000000000000
     0.000000000000000     0.000000000000000    -0.020742623872717
3 3
     8.946456416928408     1.058231259986443     0.000000000000001
     1.058231259986444     8.946456416928408    -0.000000000000001
     0.000000000000000    -0.000000000000001     5.984979373127384
3 4
     0.065895988045555    -0.000498510280737     0.000000000000000
    -0.000498510280737     0.065895988045555     0.000000000000000
     0.000000000000000     0.000000000000000    -0.076250859749251
3 5
    -0.056014877885255    -0.023405941564056    -0.000000000000000
    -0.023405941564056    -0.056014877885255     0.000000000000000
     0.000000000000000     0.000000000000000     0.003828983220125
3 6
    -0.006629833180405     0.000950351513915    -0.000000000000000
     0.000950351513915    -0.006629833180405    -0.000000000000000
    -0.000000000000000    -0.000000000000000     0.008478917413208
3 7
    -0.108716960500650    -0.001018940871690    -0.000000000000000
     0.000808223050896     0.064762495875313    -0.000000000000000
     0.000000000000000    -0.000000000000000     0.076747602263035
3 8
    -0.026585093652271     0.005581193823905    -0.000000000000000
    -0.005723322286924     0.012578015423746    -0.000000000000000
    -0.000000000000000     0.000000000000000    -0.020742623872717
3 9
     0.112443766790894     0.013362903950863    -0.008594882925322
     0.016502811612722    -0.905250122090296     1.079565025128230
    -0.011041118834837     1.060918972861732    -0.952760449941524
3 10
     0.112443766790894     0.013362903950863     0.008594882925322
     0.016502811612722    -0.905250122090295    -1.079565025128230
     0.011041118834837    -1.060918972861732    -0.952760449941524
3 11
     0.078419909800541     0.014445837986251     0.011814693653455
     0.012021522386952    -0.686291325315366    -0.771270711171584
     0.009781938434239    -0.762810178534687    -0.654759312621915
3 12
     0.078419909800541     0.014445837986251    -0.011814693653455
     0.012021522386952    -0.686291325315366     0.771270711171584
    -0.009781938434239     0.762810178534687    -0.654759312621915
3 13
    -0.065657693060295     0.009237289436030    -0.000988888833489
     0.001672661090897    -0.025168405216163     0.014425685442987
    -0.007285497943260     0.016495740544910    -0.027200453328598
3 14
    -0.065657693060295     0.009237289436030     0.000988888833489
     0.001672661090897    -0.025168405216163    -0.014425685442987
     0.007285497943260    -0.016495740544910    -0.027200453328598
3 15
    -0.053569702635911    -0.000254558441227    -0.002451185656983
    -0.001038032754782    -0.026055470673162    -0.012148801607566
    -0.002275823175249    -0.011718173577823    -0.024171914984776
3 16
    -0.053569702635911    -0.000254558441227     0.002451185656983
    -0.001038032754782    -0.026055470673162     0.012148801607566
     0.002275823175249     0.011718173577823    -0.024171914984776
3 17
    -0.025168405216163     0.001672661090897    -0.014425685442987
     0.009237289436030    -0.065657693060295     0.000988888833489
    -0.016495740544910     0.007285497943260    -0.027200453328598
3 18
    -0.025168405216163     0.001672661090897     0.014425685442987
     0.009237289436030    -0.065657693060295    -0.000988888833489
     0.016495740544910    -0.007285497943260    -0.027200453328598
3 19
    -0.905250122090295     0.016502811612722    -1.079565025128230
     0.013362903950863     0.112443766790894     0.008594882925322
    -1.060918972861732     0.011041118834837    -0.952760449941524
3 20
    -0.905250122090295     0.016502811612722     1.079565025128230
     0.013362903950863     0.112443766790894    -0.008594882925322
     1.060918972861732    -0.011041118834837    -0.952760449941524
3 21
    -0.026055470673162    -0.001038032754782     0.012148801607566
    -0.000254558441227    -0.053569702635911     0.002451185656983
     0.011718173577823     0.002275823175249    -0.024171914984776
3 22
    -0.026055470673162    -0.001038032754782    -0.012148801607566
    -0.000254558441227    -0.053569702635911    -0.002451185656983
    -0.011718173577823    -0.002275823175249    -0.024171914984776
3 23
    -0.686291325315366     0.012021522386952     0.771270711171584
     0.014445837986250     0.078419909800541    -0.011814693653455
     0.762810178534687    -0.009781938434239    -0.654759312621915
3 24
    -0.686291325315366     0.012021522386952    -0.771270711171584
     0.014445837986251     0.078419909800541     0.011814693653455
    -0.762810178534687     0.009781938434239    -0.654759312621915
3 25
    -1.097211935512912     1.251637692563023    -0.000000000000000
     1.251637692563023    -1.097211935512913     0.000000000000000
     0.000000000000000    -0.000000000000000     0.126371295506535
3 26
    -0.028095473736885     0.018945511988331    -0.000000000000000
     0.018945511988331    -0.028095473736885     0.000000000000000
     0.000000000000000     0.000000000000000    -0.077700428650684
3 27
    -1.561565423184211    -1.957289247993887     0.000000000000000
    -1.940326463420002    -1.731419543093031    -0.000000000000000
     0.000000000000000     0.000000000000000     0.285348345353753
3 28
    -0.024019003143345    -0.020892884063719    -0.000000000000000
    -0.021447255780169    -0.023381899933495     0.000000000000000
     0.000000000000000     0.000000000000000    -0.082397738998106
3 29
    -1.731419543093031    -1.940326463420002     0.000000000000000
    -1.957289247993887    -1.561565423184211    -0.000000000000000
     0.000000000000000    -0.000000000000000     0.285348345353753
3 30
    -0.023381899933495    -0.021447255780169    -0.000000000000000
    -0.020892884063719    -0.024019003143345     0.000000000000000
     0.000000000000000     0.000000000000000    -0.082397738998106
3 31
    -1.257765479928786     1.479529015751291    -0.000000000000000
     1.479529015751291    -1.257765479928786     0.000000000000000
    -0.000000000000000    -0.000000000000000     0.225348567203121
3 32
    -0.026027186401914     0.023019861261528    -0.000000000000000
     0.023019861261528    -0.026027186401914     0.000000000000000
    -0.000000000000000     0.000000000000000    -0.077398494055117
4 1
     0.012578015423746    -0.005723322286924     0.000000000000000
     0.005581193823905    -0.026585093652271     0.000000000000000
     0.000000000000000     0.000000000000000    -0.020742623872717
4 2
     0.064762495875313     0.000808223050896     0.000000000000000
    -0.001018940871690    -0.108716960500650     0.000000000000000
     0.000000000000000    -0.000000000000000     0.076747602263035
4 3
     0.065895988045555    -0.000498510280737     0.000000000000000
    -0.000498510280737     0.065895988045555     0.000000000000000
     0.000000000000000     0.000000000000000    -0.076250859749251
4 4
     8.946456416928408     1.058231259986443     0.000000000000001
     1.058231259986444     8.946456416928408    -0.000000000000001
     0.000000000000000    -0.000000000000001     5.984979373127384
4 5
    -0.006629833180405     0.000950351513915    -0.000000000000000
     0.000950351513915    -0.006629833180405    -0.000000000000000
    -0.000000000000000    -0.000000000000000     0.008478917413208
4 6
    -0.056014877885255    -0.023405941564056    -0.000000000000000
    -0.023405941564056    -0.056014877885255     0.000000000000000
     0.000000000000000     0.000000000000000     0.003828983220125
4 7
    -0.026585093652271     0.005581193823905    -0.000000000000000
    -0.005723322286924     0.012578015423746    -0.000000000000000
    -0.000000000000000     0.000000000000000    -0.020742623872717
4 8
    -0.108716960500650    -0.001018940871690    -0.000000000000000
     0.000808223050896     0.064762495875313    -0.000000000000000
     0.000000000000000    -0.000000000000000     0.076747602263035
4 9
     0.112443766790894     0.013362903950863     0.008594882925322
     0.016502811612722    -0.905250122090295    -1.079565025128230
     0.011041118834837    -1.060918972861732    -0.952760449941524
4 10
     0.112443766790894     0.013362903950863    -0.008594882925322
     0.016502811612722    -0.905250122090296     1.079565025128230
    -0.011041118834837     1.060918972861732    -0.952760449941524
4 11
     0.078419909800541     0.014445837986251    -0.011814693653455
     0.012021522386952    -0.686291325315366     0.771270711171584
    -0.009781938434239     0.762810178534687    -0.654759312621915
4 12
     0.078419909800541     0.014445837986251     0.011814693653455
     0.012021522386952    -0.686291325315366    -0.771270711171584
     0.009781938434239    -0.762810178534687    -0.654759312621915
4 13
    -0.065657693060295     0.009237289436030     0.000988888833489
     0.001672661090897    -0.025168405216163    -0.014425685442987
     0.007285497943260    -0.016495740544910    -0.027200453328598
4 14
    -0.065657693060295     0.009237289436030    -0.000988888833489
     0.001672661090897    -0.025168405216163     0.014425685442987
    -0.007285497943260     0.016495740544910    -0.027200453328598
4 15
    -0.053569702635911    -0.000254558441227     0.002451185656983
    -0.001038032754782    -0.026055470673162     0.012148801607566
     0.002275823175249     0.011718173577823    -0.024171914984776
4 16
    -0.053569702635911    -0.000254558441227    -0.002451185656983
    -0.001038032754782    -0.026055470673162    -0.012148801607566
    -0.002275823175249    -0.011718173577823    -0.024171914984776
4 17
    -0.025168405216163     0.001672661090897     0.014425685442987
     0.009237289436030    -0.065657693060295    -0.000988888833489
     0.016495740544910    -0.007285497943260    -0.027200453328598
4 18
    -0.025168405216163     0.001672661090897    -0.014425685442987
     0.009237289436030    -0.065657693060295     0.000988888833489
    -0.016495740544910     0.007285497943260    -0.027200453328598
4 19
    -0.905250122090295     0.016502811612722     1.079565025128230
     0.013362903950863     0.112443766790894    -0.008594882925322
     1.060918972861732    -0.011041118834837    -0.952760449941524
4 20
    -0.905250122090295     0.016502811612722    -1.079565025128230
     0.013362903950863     0.112443766790894     0.008594882925322
    -1.060918972861732     0.011041118834837    -0.952760449941524
4 21
    -0.026055470673162    -0.001038032754782    -0.012148801607566
    -0.000254558441227    -0.053569702635911    -0.002451185656983
    -0.011718173577823    -0.002275823175249    -0.024171914984776
4 22
    -0.026055470673162    -0.001038032754782     0.012148801607566
    -0.000254558441227    -0.053569702635911     0.002451185656983
     0.011718173577823     0.002275823175249    -0.024171914984776
4 23
    -0.686291325315366     0.012021522386952    -0.771270711171584
     0.014445837986251     0.078419909800541     0.011814693653455
    -0.762810178534687     0.009781938434239    -0.654759312621915
4 24
    -0.686291325315366     0.012021522386952     0.771270711171584
     0.014445837986250     0.078419909800541    -0.011814693653455
     0.762810178534687    -0.009781938434239    -0.654759312621915
4 25
    -0.028095473736885     0.018945511988331    -0.000000000000000
     0.018945511988331    -0.028095473736885     0.000000000000000
     0.000000000000000     0.000000000000000    -0.077700428650684
4 26
    -1.097211935512912     1.251637692563023    -0.000000000000000
     1.251637692563023    -1.097211935512913     0.000000000000000
     0.000000000000000    -0.000000000000000     0.126371295506535
4 27
    -0.024019003143345    -0.020892884063719    -0.000000000000000
    -0.021447255780169    -0.023381899933495     0.000000000000000
     0.000000000000000     0.000000000000000    -0.082397738998106
4 28
    -1.561565423184211    -1.957289247993887     0.000000000000000
    -1.940326463420002    -1.731419543093031    -0.000000000000000
     0.000000000000000     0.000000000000000     0.285348345353753
4 29
    -0.023381899933495    -0.021447255780169    -0.000000000000000
    -0.020892884063719    -0.024019003143345     0.000000000000000
     0.000000000000000     0.000000000000000    -0.082397738998106
4 30
    -1.731419543093031    -1.940326463420002     0.000000000000000
    -1.957289247993887    -1.561565423184211    -0.000000000000000
     0.000000000000000    -0.000000000000000     0.285348345353753
4 31
    -0.026027186401914     0.023019861261528    -0.000000000000000
     0.023019861261528    -0.026027186401914     0.000000000000000
    -0.000000000000000     0.000000000000000    -0.077398494055117
4 32
    -1.257765479928786     1.479529015751291    -0.000000000000000
     1.479529015751291    -1.257765479928786     0.000000000000000
    -0.000000000000000    -0.000000000000000     0.225348567203121
5 1
    -0.108716960500650    -0.001018940871690    -0.000000000000000
     0.000808223050896     0.064762495875313    -0.000000000000000
     0.000000000000000    -0.000000000000000     0.076747602263035
5 2
    -0.026585093652271     0.005581193823905    -0.000000000000000
    -0.005723322286924     0.012578015423746    -0.000000000000000
    -0.000000000000000     0.000000000000000    -0.020742623872717
5 3
    -0.056014877885255    -0.023405941564056    -0.000000000000000
    -0.023405941564056    -0.056014877885255     0.000000000000000
     0.000000000000000     0.000000000000000     0.003828983220125
5 4
    -0.006629833180405     0.000950351513915    -0.000000000000000
     0.000950351513915    -0.006629833180405    -0.000000000000000
    -0.000000000000000    -0.000000000000000     0.008478917413208
5 5
     8.946456416928408     1.058231259986443     0.000000000000001
     1.058231259986444     8.946456416928408    -0.000000000000001
     0.000000000000000    -0.000000000000001     5.984979373127384
5 6
     0.065895988045555    -0.000498510280737     0.000000000000000
    -0.000498510280737     0.065895988045555     0.000000000000000
     0.000000000000000     0.000000000000000    -0.076250859749251
5 7
     0.064762495875313     0.000808223050896     0.000000000000000
    -0.001018940871690    -0.108716960500650     0.000000000000000
     0.000000000000000    -0.000000000000000     0.076747602263035
5 8
     0.012578015423746    -0.005723322286924     0.000000000000000
     0.005581193823905    -0.026585093652271     0.000000000000000
     0.000000000000000     0.000000000000000    -0.020742623872717
5 9
    -0.065657693060295     0.009237289436030     0.000988888833489
     0.001672661090897    -0.025168405216163    -0.014425685442987
     0.007285497943260    -0.016495740544910    -0.027200453328598
5 10
    -0.065657693060295     0.009237289436030    -0.000988888833489
     0.001672661090897    -0.025168405216163     0.014425685442987
    -0.007285497943260     0.016495740544910    -0.027200453328598
5 11
    -0.053569702635911    -0.000254558441227     0.002451185656983
    -0.001038032754782    -0.026055470673162     0.012148801607566
     0.002275823175249     0.011718173577823    -0.024171914984776
5 12
    -0.053569702635911    -0.000254558441227    -0.002451185656983
    -0.001038032754782    -0.026055470673162    -0.012148801607566
    -0.002275823175249    -0.011718173577823    -0.024171914984776
5 13
     0.112443766790894     0.013362903950863     0.008594882925322
     0.016502811612722    -0.905250122090295    -1.079565025128230
     0.011041118834837    -1.060918972861732    -0.952760449941524
5 14
     0.112443766790894     0.013362903950863    -0.008594882925322
     0.016502811612722    -0.905250122090296     1.079565025128230
    -0.011041118834837     1.060918972861732    -0.952760449941524
5 15
     0.078419909800541     0.014445837986251    -0.011814693653455
     0.012021522386952    -0.686291325315366     0.771270711171584
    -0.009781938434239     0.762810178534687    -0.654759312621915
5 16
     0.078419909800541     0.014445837986251     0.011814693653455
     0.012021522386952    -0.686291325315366    -0.771270711171584
     0.009781938434239    -0.762810178534687    -0.654759312621915
5 17
    -0.905250122090295     0.016502811612722     1.079565025128230
     0.013362903950863     0.112443766790894    -0.008594882925322
     1.060918972861732    -0.011041118834837    -0.952760449941524
5 18
    -0.905250122090295     0.016502811612722    -1.079565025128230
     0.013362903950863     0.112443766790894     0.008594882925322