  32   32
1 1
     8.949111499999997    -1.057994750000000     0.000000000000000
    -1.057994750000000     8.949111499999999     0.000000000000000
    -0.000000000000000     0.000000000000001     5.987585499999999
1 2
     0.066167250000000     0.000894000000000     0.000000000000000
     0.000894000000000     0.066167250000000     0.000000000000000
    -0.000000000000000     0.000000000000000    -0.076329500000000
1 3
     0.065044250000000    -0.001149250000000     0.000000000000000
     0.001280250000000    -0.109129500000000    -0.000000000000000
    -0.000000000000000    -0.000000000000000     0.076833000000000
1 4
     0.012844250000000     0.005369750000000     0.000000000000000
    -0.005207000000000    -0.027005250000000    -0.000000000000000
    -0.000000000000000    -0.000000000000000    -0.020804000000000
1 5
    -0.109129500000000     0.001280250000000    -0.000000000000000
    -0.001149250000000     0.065044250000000     0.000000000000000
    -0.000000000000000     0.000000000000000     0.076833000000000
1 6
    -0.027005250000000    -0.005207000000000    -0.000000000000000
     0.005369750000000     0.012844250000000     0.000000000000000
     0.000000000000000     0.000000000000000    -0.020804000000000
1 7
    -0.056457500000000     0.023085750000000    -0.000000000000000
     0.023085750000000    -0.056457500000000    -0.000000000000000
     0.000000000000000    -0.000000000000000     0.003683000000000
1 8
    -0.007087750000000    -0.001315750000000    -0.000000000000000
    -0.001315750000000    -0.007087750000000    -0.000000000000000
    -0.000000000000000    -0.000000000000000     0.008434500000000
1 9
     0.112475000000000    -0.013373000000000    -0.008505750000000
    -0.016334000000000    -0.905176750000000    -1.079320500000000
    -0.011059500000000    -1.060903750000000    -0.952772750000000
1 10
     0.112475000000000    -0.013373000000000     0.008505750000000
    -0.016334000000000    -0.905176750000000     1.079320500000000
     0.011059500000000     1.060903750000000    -0.952772750000000
1 11
     0.078764500000000    -0.014499000000000     0.011917500000000
    -0.011494500000000    -0.686137250000000     0.771214250000000
     0.009707000000000     0.762776500000000    -0.654782250000000
1 12
     0.078764500000000    -0.014499000000000    -0.011917500000000
    -0.011494500000000    -0.686137250000000    -0.771214250000000
    -0.009707000000000    -0.762776500000000    -0.654782250000000
1 13
    -0.065869250000000    -0.009188250000000    -0.000903500000000
    -0.001816750000000    -0.025255000000000    -0.014361750000000
    -0.007285000000000    -0.016516750000000    -0.027337750000000
1 14
    -0.065869250000000    -0.009188250000000     0.000903500000000
    -0.001816750000000    -0.025255000000000     0.014361750000000
     0.007285000000000     0.016516750000000    -0.027337750000000
1 15
    -0.054175750000000     0.000291000000000    -0.002409750000000
     0.000523250000000    -0.026100750000000     0.012195750000000
    -0.002286000000000     0.011702000000000    -0.024289750000000
1 16
    -0.054175750000000     0.000291000000000     0.002409750000000
     0.000523250000000    -0.026100750000000    -0.012195750000000
     0.002286000000000    -0.011702000000000    -0.024289750000000
1 17
    -0.905176750000000    -0.016334000000000    -1.079320500000000
    -0.013373000000000     0.112475000000000    -0.008505750000000
    -1.060903750000000    -0.011059500000000    -0.952772750000000
1 18
    -0.905176750000000    -0.016334000000000     1.079320500000000
    -0.013373000000000     0.112475000000000     0.008505750000000
     1.060903750000000     0.011059500000000    -0.952772750000000
1 19
    -0.025255000000000    -0.001816750000000    -0.014361750000000
    -0.009188250000000    -0.065869250000000    -0.000903500000000
    -0.016516750000000    -0.007285000000000    -0.027337750000000
1 20
    -0.025255000000000    -0.001816750000000     0.014361750000000
    -0.009188250000000    -0.065869250000000     0.000903500000000
     0.016516750000000     0.007285000000000    -0.027337750000000
1 21
    -0.686137250000000    -0.011494500000000     0.771214250000000
    -0.014499000000000     0.078764500000000     0.011917500000000
     0.762776500000000     0.009707000000000    -0.654782250000000
1 22
    -0.686137250000000    -0.011494500000000    -0.771214250000000
    -0.014499000000000     0.078764500000000    -0.011917500000000
    -0.762776500000000    -0.009707000000000    -0.654782250000000
1 23
    -0.026100750000000     0.000523250000000     0.012195750000000
     0.000291000000000    -0.054175750000000    -0.002409750000000
     0.011702000000000    -0.002286000000000    -0.024289750000000
1 24
    -0.026100750000000     0.000523250000000    -0.012195750000000
     0.000291000000000    -0.054175750000000     0.002409750000000
    -0.011702000000000     0.002286000000000    -0.024289750000000
1 25
    -1.097370500000000    -1.251731250000000    -0.000000000000000
    -1.251731250000000    -1.097370500000000    -0.000000000000000
    -0.000000000000000    -0.000000000000000     0.126141000000000
1 26
    -0.028150250000000    -0.018970000000000    -0.000000000000000
    -0.018970000000000    -0.028150250000000    -0.000000000000000
    -0.000000000000000    -0.000000000000000    -0.077782000000000
1 27
    -1.561733250000000     1.957495249999999     0.000000000000000
     1.940492249999999    -1.731711500000000     0.000000000000000
     0.000000000000000    -0.000000000000000     0.285174500000000
1 28
    -0.024140250000000     0.020822750000000    -0.000000000000000
     0.021437500000000    -0.023441000000000    -0.000000000000000
     0.000000000000000    -0.000000000000000    -0.082536500000000
1 29
    -1.731711500000000     1.940492249999999     0.000000000000000
     1.957495250000000    -1.561733250000000     0.000000000000000
     0.000000000000000    -0.000000000000000     0.285174500000000
1 30
    -0.023441000000000     0.021437500000000    -0.000000000000000
     0.020822750000000    -0.024140250000000    -0.000000000000000
     0.000000000000000    -0.000000000000000    -0.082536500000000
1 31
    -1.257982750000000    -1.479742750000000    -0.000000000000000
    -1.479742750000000    -1.257982750000000    -0.000000000000000
    -0.000000000000000    -0.000000000000000     0.225266000000000
1 32
    -0.026007000000000    -0.022986000000000    -0.000000000000000
    -0.022986000000000    -0.026007000000000    -0.000000000000000
    -0.000000000000000    -0.000000000000000    -0.077601500000000
2 1
     0.066258000000000     0.000955000000000     0.000000000000000
     0.000955000000000     0.066258000000000     0.000000000000000
    -0.000000000000000     0.000000000000000    -0.076306500000000
2 2
     8.949208999999998    -1.057903500000000     0.000000000000000
    -1.057903500000000     8.949208999999998     0.000000000000000
    -0.000000000000000     0.000000000000001     5.987584999999998
2 3
     0.012897000000000     0.005322000000000     0.000000000000000
    -0.005164000000000    -0.027088000000000    -0.000000000000000
    -0.000000000000000    -0.000000000000000    -0.020831500000000
2 4
     0.065073500000000    -0.001230000000000     0.000000000000000
     0.001387750000000    -0.109209000000000    -0.000000000000000
     0.000000000000000    -0.000000000000000     0.076828000000000
2 5
    -0.027088000000000    -0.005164000000000    -0.000000000000000
     0.005322000000000     0.012897000000000     0.000000000000000
     0.000000000000000     0.000000000000000    -0.020831500000000
2 6
    -0.109209000000000     0.001387750000000    -0.000000000000000
    -0.001230000000000     0.065073500000000     0.000000000000000
    -0.000000000000000     0.000000000000000     0.076828000000000
2 7
    -0.007162250000000    -0.001381250000000    -0.000000000000000
    -0.001381250000000    -0.007162250000000    -0.000000000000000
    -0.000000000000000    -0.000000000000000     0.008400500000000
2 8
    -0.056522250000000     0.023013250000000    -0.000000000000000
     0.023013250000000    -0.056522250000000    -0.000000000000000
     0.000000000000000    -0.000000000000000     0.003715000000000
2 9
     0.112386500000000    -0.013395000000000     0.008557500000000
    -0.016427750000000    -0.905222000000000     1.079369500000000
     0.011055250000000     1.060903500000000    -0.952747750000000
2 10
     0.112386500000000    -0.013395000000000    -0.008557500000000
    -0.016427750000000    -0.905222000000000    -1.079369500000000
    -0.011055250000000    -1.060903500000000    -0.952747750000000
2 11
     0.078995250000000    -0.014484000000000    -0.011856000000000
    -0.011226000000000    -0.686092500000000    -0.771145500000000
    -0.009685750000000    -0.762779500000000    -0.654775000000000
2 12
     0.078995250000000    -0.014484000000000     0.011856000000000
    -0.011226000000000    -0.686092500000000     0.771145500000000
     0.009685750000000     0.762779500000000    -0.654775000000000
2 13
    -0.065780500000000    -0.009201000000000     0.000972500000000
    -0.001722250000000    -0.025282000000000     0.014429750000000
     0.007289000000000     0.016517500000000    -0.027324250000000
2 14
    -0.065780500000000    -0.009201000000000    -0.000972500000000
    -0.001722250000000    -0.025282000000000    -0.014429750000000
    -0.007289000000000    -0.016517500000000    -0.027324250000000
2 15
    -0.054407250000000     0.000277500000000     0.002467250000000
     0.000248000000000    -0.026086250000000    -0.012127750000000
     0.002281500000000    -0.011714500000000    -0.024289250000000
2 16
    -0.054407250000000     0.000277500000000    -0.002467250000000
     0.000248000000000    -0.026086250000000     0.012127750000000
    -0.002281500000000     0.011714500000000    -0.024289250000000
2 17
    -0.905222000000000    -0.016427750000000     1.079369499999999
    -0.013395000000000     0.112386500000000     0.008557500000000
     1.060903500000000     0.011055250000000    -0.952747750000000
2 18
    -0.905222000000000    -0.016427750000000    -1.079369500000000
    -0.013395000000000     0.112386500000000    -0.008557500000000
    -1.060903500000000    -0.011055250000000    -0.952747750000000
2 19
    -0.025282000000000    -0.001722250000000     0.014429750000000
    -0.009201000000000    -0.065780500000000     0.000972500000000
     0.016517500000000     0.007289000000000    -0.027324250000000
2 20
    -0.025282000000000    -0.001722250000000    -0.014429750000000
    -0.009201000000000    -0.065780500000000    -0.000972500000000
    -0.016517500000000    -0.007289000000000    -0.027324250000000
2 21
    -0.686092500000000    -0.011226000000000    -0.771145500000000
    -0.014484000000000     0.078995250000000    -0.011856000000000
    -0.762779500000000    -0.009685750000000    -0.654775000000000
2 22
    -0.686092500000000    -0.011226000000000     0.771145500000000
    -0.014484000000000     0.078995250000000     0.011856000000000
     0.762779500000000     0.009685750000000    -0.654775000000000
2 23
    -0.026086250000000     0.000248000000000    -0.012127750000000
     0.000277500000000    -0.054407250000000     0.002467250000000
    -0.011714500000000     0.002281500000000    -0.024289250000000
2 24
    -0.026086250000000     0.000248000000000     0.012127750000000
     0.000277500000000    -0.054407250000000    -0.002467250000000
     0.011714500000000    -0.002281500000000    -0.024289250000000
2 25
    -0.028188750000000    -0.019005250000000    -0.000000000000000
    -0.019005250000000    -0.028188750000000    -0.000000000000000
    -0.000000000000000    -0.000000000000000    -0.077767000000000
2 26
    -1.097376750000000    -1.251747250000000    -0.000000000000000
    -1.251747250000000    -1.097376750000000    -0.000000000000000
    -0.000000000000000    -0.000000000000000     0.126111000000000
2 27
    -0.024170750000000     0.020869000000000    -0.000000000000000
     0.021421500000000    -0.023405000000000    -0.000000000000000
     0.000000000000000    -0.000000000000000    -0.082625500000000
2 28
    -1.561713000000000     1.957458749999999     0.000000000000000
     1.940565000000000    -1.731698500000000     0.000000000000000
     0.000000000000000    -0.000000000000000     0.285161500000000
2 29
    -0.023405000000000     0.021421500000000    -0.000000000000000
     0.020869000000000    -0.024170750000000    -0.000000000000000
     0.000000000000000    -0.000000000000000    -0.082625500000000
2 30
    -1.731698499999999     1.940565000000000     0.000000000000000
     1.957458750000000    -1.561713000000000     0.000000000000000
     0.000000000000000    -0.000000000000000     0.285161500000000
2 31
    -0.025997000000000    -0.023010500000000    -0.000000000000000
    -0.023010500000000    -0.025997000000000    -0.000000000000000
    -0.000000000000000    -0.000000000000000    -0.077630000000000
2 32
    -1.257930750000000    -1.479689250000000    -0.000000000000000
    -1.479689250000000    -1.257930750000000    -0.000000000000000
    -0.000000000000000    -0.000000000000000     0.225370000000000
3 1
     0.065400000000000     0.001459000000000     0.000000000000000
    -0.001579500000000    -0.109485250000000    -0.000000000000000
    -0.000000000000000    -0.000000000000000     0.076822000000000
3 2
     0.013163000000000    -0.005162500000000     0.000000000000000
     0.005002000000000    -0.027340500000000    -0.000000000000000
     0.000000000000000    -0.000000000000000    -0.020819000000000
3 3
     8.949486249999996     1.057739000000000     0.000000000000001
     1.057739000000000     8.949486250000000     0.000000000000001
     0.000000000000000     0.000000000000001     5.987582999999999
3 4
     0.066493250000000    -0.001160250000000     0.000000000000000
    -0.001160250000000     0.066493250000000     0.000000000000000
    -0.000000000000000     0.000000000000000    -0.076306000000000
3 5
    -0.056763000000000    -0.022832750000000    -0.000000000000000
    -0.022832750000000    -0.056763000000000    -0.000000000000000
    -0.000000000000000    -0.000000000000000     0.003691500000000
3 6
    -0.007428000000000     0.001548000000000    -0.000000000000000
     0.001548000000000    -0.007428000000000    -0.000000000000000
     0.000000000000000    -0.000000000000000     0.008374500000000
3 7
    -0.109485250000000    -0.001579500000000    -0.000000000000000
     0.001459000000000     0.065400000000000     0.000000000000000
     0.000000000000000     0.000000000000000     0.076822000000000
3 8
    -0.027340500000000     0.005002000000000    -0.000000000000000
    -0.005162500000000     0.013163000000000     0.000000000000000
    -0.000000000000000     0.000000000000000    -0.020819000000000
3 9
     0.112618000000000     0.013393750000000    -0.008605500000000
     0.016251500000000    -0.905207000000000     1.079450750000000
    -0.011061750000000     1.060899500000000    -0.952764250000000
3 10
     0.112618000000000     0.013393750000000     0.008605500000000
     0.016251500000000    -0.905207000000000    -1.079450750000000
     0.011061750000000    -1.060899500000000    -0.952764250000000
3 11
     0.079261750000000     0.014472500000000     0.011822000000000
     0.011030750000000    -0.686121000000000    -0.771122750000000
     0.009716250000000    -0.762790750000000    -0.654790500000000
3 12
     0.079261750000000     0.014472500000000    -0.011822000000000
     0.011030750000000    -0.686121000000000     0.771122750000000
    -0.009716250000000     0.762790750000000    -0.654790500000000
3 13
    -0.066037250000000     0.009197500000000    -0.001037000000000
     0.001907500000000    -0.025270250000000     0.014471500000000
    -0.007301250000000     0.016506750000000    -0.027335500000000
3 14
    -0.066037250000000     0.009197500000000     0.001037000000000
     0.001907500000000    -0.025270250000000    -0.014471500000000
     0.007301250000000    -0.016506750000000    -0.027335500000000
3 15
    -0.054655500000000    -0.000265750000000    -0.002500250000000
    -0.000072500000000    -0.026095000000000    -0.012102250000000
    -0.002278750000000    -0.011713000000000    -0.024281000000000
3 16
    -0.054655500000000    -0.000265750000000     0.002500250000000
    -0.000072500000000    -0.026095000000000     0.012102250000000
     0.002278750000000     0.011713000000000    -0.024281000000000
3 17
    -0.025270250000000     0.001907500000000    -0.014471500000000
     0.009197500000000    -0.066037250000000     0.001037000000000
    -0.016506750000000     0.007301250000000    -0.027335500000000
3 18
    -0.025270250000000     0.001907500000000     0.014471500000000
     0.009197500000000    -0.066037250000000    -0.001037000000000
     0.016506750000000    -0.007301250000000    -0.027335500000000
3 19
    -0.905207000000000     0.016251500000000    -1.079450750000000
     0.013393750000000     0.112618000000000     0.008605500000000
    -1.060899500000000     0.011061750000000    -0.952764250000000
3 20
    -0.905207000000000     0.016251500000000     1.079450749999999
     0.013393750000000     0.112618000000000    -0.008605500000000
     1.060899500000000    -0.011061750000000    -0.952764250000000
3 21
    -0.026095000000000    -0.000072500000000     0.012102250000000
    -0.000265750000000    -0.054655500000000     0.002500250000000
     0.011713000000000     0.002278750000000    -0.024281000000000
3 22
    -0.026095000000000    -0.000072500000000    -0.012102250000000
    -0.000265750000000    -0.054655500000000    -0.002500250000000
    -0.011713000000000    -0.002278750000000    -0.024281000000000
3 23
    -0.686121000000000     0.011030750000000     0.771122750000000
     0.014472500000000     0.079261750000000    -0.011822000000000
     0.762790750000000    -0.009716250000000    -0.654790500000000
3 24
    -0.686121000000000     0.011030750000000    -0.771122750000000
     0.014472500000000     0.079261750000000     0.011822000000000
    -0.762790750000000     0.009716250000000    -0.654790500000000
3 25
    -1.097369000000000     1.251770750000000     0.000000000000000
     1.251770750000000    -1.097369000000000     0.000000000000000
     0.000000000000000    -0.000000000000000     0.126141000000000
3 26
    -0.028178250000000     0.018987250000000    -0.000000000000000
     0.018987250000000    -0.028178250000000    -0.000000000000000
     0.000000000000000    -0.000000000000000    -0.077764500000000
3 27
    -1.561704500000000    -1.957551500000000    -0.000000000000000
    -1.940551500000000    -1.731759499999999    -0.000000000000000
    -0.000000000000000    -0.000000000000000     0.285148500000000
3 28
    -0.024151500000000    -0.020836750000000    -0.000000000000000
    -0.021389500000000    -0.023367250000000    -0.000000000000000
    -0.000000000000000    -0.000000000000000    -0.082522000000000
3 29
    -1.731759499999999    -1.940551499999999    -0.000000000000000
    -1.957551500000000    -1.561704500000000    -0.000000000000000
    -0.000000000000000    -0.000000000000000     0.285148500000000
3 30
    -0.023367250000000    -0.021389500000000    -0.000000000000000
    -0.020836750000000    -0.024151500000000    -0.000000000000000
    -0.000000000000000    -0.000000000000000    -0.082522000000000
3 31
    -1.257964750000000     1.479730499999999     0.000000000000000
     1.479730500000000    -1.257964750000000     0.000000000000000
     0.000000000000000    -0.000000000000000     0.225221000000000
3 32
    -0.026020000000000     0.022998500000000    -0.000000000000000
     0.022998500000000    -0.026020000000000    -0.000000000000000
     0.000000000000000    -0.000000000000000    -0.077513000000000
4 1
     0.012889750000000    -0.005237750000000     0.000000000000000
     0.005096750000000    -0.027053250000000    -0.000000000000000
     0.000000000000000    -0.000000000000000    -0.020777000000000
4 2
     0.065066000000000     0.001353000000000     0.000000000000000
    -0.001481750000000    -0.109186000000000    -0.000000000000000
    -0.000000000000000    -0.000000000000000     0.076858500000000
4 3
     0.066200250000000    -0.001066000000000     0.000000000000000
    -0.001066000000000     0.066200250000000     0.000000000000000
    -0.000000000000000     0.000000000000000    -0.076342000000000
4 4
     8.949171249999999     1.057835000000000     0.000000000000001
     1.057835000000000     8.949171249999999     0.000000000000001
     0.000000000000000     0.000000000000001     5.987588499999999
4 5
    -0.007120750000000     0.001484500000000    -0.000000000000000
     0.001484500000000    -0.007120750000000    -0.000000000000000
     0.000000000000000    -0.000000000000000     0.008348000000000
4 6
    -0.056480000000000    -0.022949750000000    -0.000000000000000
    -0.022949750000000    -0.056480000000000    -0.000000000000000
    -0.000000000000000    -0.000000000000000     0.003685000000000
4 7
    -0.027053250000000     0.005096750000000    -0.000000000000000
    -0.005237750000000     0.012889750000000     0.000000000000000
    -0.000000000000000     0.000000000000000    -0.020777000000000
4 8
    -0.109186000000000    -0.001481750000000    -0.000000000000000
     0.001353000000000     0.065066000000000     0.000000000000000
     0.000000000000000     0.000000000000000     0.076858500000000
4 9
     0.112598000000000     0.013378000000000     0.008466000000000
     0.016072750000000    -0.905173750000000    -1.079269250000000
     0.011068750000000    -1.060909000000000    -0.952777250000000
4 10
     0.112598000000000     0.013378000000000    -0.008466000000000
     0.016072750000000    -0.905173750000000     1.079269250000000
    -0.011068750000000     1.060909000000000    -0.952777250000000
4 11
     0.078696000000000     0.014490000000000    -0.011950250000000
     0.011428250000000    -0.686124500000000     0.771253750000000
    -0.009702750000000     0.762783750000000    -0.654803250000000
4 12
     0.078696000000000     0.014490000000000     0.011950250000000
     0.011428250000000    -0.686124500000000    -0.771253750000000
     0.009702750000000    -0.762783750000000    -0.654803250000000
4 13
    -0.065996500000000     0.009198250000000     0.000885750000000
     0.002063250000000    -0.025256250000000    -0.014325250000000
     0.007313000000000    -0.016524500000000    -0.027336500000000
4 14
    -0.065996500000000     0.009198250000000    -0.000885750000000
     0.002063250000000    -0.025256250000000     0.014325250000000
    -0.007313000000000     0.016524500000000    -0.027336500000000
4 15
    -0.054092250000000    -0.000264750000000     0.002353250000000
    -0.000445250000000    -0.026138750000000     0.012226500000000
     0.002301750000000     0.011718000000000    -0.024290250000000
4 16
    -0.054092250000000    -0.000264750000000    -0.002353250000000
    -0.000445250000000    -0.026138750000000    -0.012226500000000
    -0.002301750000000    -0.011718000000000    -0.024290250000000
4 17
    -0.025256250000000     0.002063250000000     0.014325250000000
     0.009198250000000    -0.065996500000000    -0.000885750000000
     0.016524500000000    -0.007313000000000    -0.027336500000000
4 18
    -0.025256250000000     0.002063250000000    -0.014325250000000
     0.009198250000000    -0.065996500000000     0.000885750000000
    -0.016524500000000     0.007313000000000    -0.027336500000000
4 19
    -0.905173750000000     0.016072750000000     1.079269250000000
     0.013378000000000     0.112598000000000    -0.008466000000000
     1.060909000000000    -0.011068750000000    -0.952777250000000
4 20
    -0.905173750000000     0.016072750000000    -1.079269250000000
     0.013378000000000     0.112598000000000     0.008466000000000
    -1.060909000000000     0.011068750000000    -0.952777250000000
4 21
    -0.026138750000000    -0.000445250000000    -0.012226500000000
    -0.000264750000000    -0.054092250000000    -0.002353250000000
    -0.011718000000000    -0.002301750000000    -0.024290250000000
4 22
    -0.026138750000000    -0.000445250000000     0.012226500000000
    -0.000264750000000    -0.054092250000000     0.002353250000000
     0.011718000000000     0.002301750000000    -0.024290250000000
4 23
    -0.686124500000000     0.011428250000000    -0.771253750000000
     0.014490000000000     0.078696000000000     0.011950250000000
    -0.762783750000000     0.009702750000000    -0.654803250000000
4 24
    -0.686124500000000     0.011428250000000     0.771253750000000
     0.014490000000000     0.078696000000000    -0.011950250000000
     0.762783750000000    -0.009702750000000    -0.654803250000000
4 25
    -0.028196250000000     0.018978750000000    -0.000000000000000
     0.018978750000000    -0.028196250000000    -0.000000000000000
     0.000000000000000    -0.000000000000000    -0.077779500000000
4 26
    -1.097378000000000     1.251756500000000     0.000000000000000
     1.251756500000000    -1.097378000000000     0.000000000000000
     0.000000000000000    -0.000000000000000     0.126168000000000
4 27
    -0.024048750000000    -0.020839750000000    -0.000000000000000
    -0.021394500000000    -0.023424000000000    -0.000000000000000
    -0.000000000000000    -0.000000000000000    -0.082503000000000
4 28
    -1.561665249999999    -1.957426249999999    -0.000000000000000
    -1.940553750000000    -1.731766250000000    -0.000000000000000
    -0.000000000000000    -0.000000000000000     0.285134500000000
4 29
    -0.023424000000000    -0.021394500000000    -0.000000000000000
    -0.020839750000000    -0.024048750000000    -0.000000000000000
    -0.000000000000000    -0.000000000000000    -0.082503000000000
4 30
    -1.731766250000000    -1.940553750000000    -0.000000000000000
    -1.957426250000000    -1.561665250000000    -0.000000000000000
    -0.000000000000000    -0.000000000000000     0.285134500000000
4 31
    -0.026055500000000     0.022885500000000    -0.000000000000000
     0.022885500000000    -0.026055500000000    -0.000000000000000
     0.000000000000000    -0.000000000000000    -0.077467000000000
4 32
    -1.257978000000000     1.479717500000000     0.000000000000000
     1.479717500000000    -1.257978000000000     0.000000000000000
     0.000000000000000    -0.000000000000000     0.225202500000000
5 1
    -0.108975000000000    -0.001138250000000    -0.000000000000000
     0.001093500000000     0.064968000000000     0.000000000000000
     0.000000000000000     0.000000000000000     0.076853500000000
5 2
    -0.026888500000000     0.005438750000000    -0.000000000000000
    -0.005513000000000     0.012778500000000     0.000000000000000
    -0.000000000000000     0.000000000000000    -0.020823000000000
5 3
    -0.056392250000000    -0.023272750000000    -0.000000000000000
    -0.023272750000000    -0.056392250000000    -0.000000000000000
    -0.000000000000000    -0.000000000000000     0.003756000000000
5 4
    -0.007072000000000     0.001151250000000    -0.000000000000000
     0.001151250000000    -0.007072000000000    -0.000000000000000
     0.000000000000000    -0.000000000000000     0.008355000000000
5 5
     8.948952499999999     1.058084000000000     0.000000000000001
     1.058084000000000     8.948952499999999     0.000000000000001
     0.000000000000000     0.000000000000001     5.987610000000000
5 6
     0.066059500000000    -0.000778750000000     0.000000000000000
    -0.000778750000000     0.066059500000000     0.000000000000000
    -0.000000000000000     0.000000000000000    -0.076336500000000
5 7
     0.064968000000000     0.001093500000000     0.000000000000000
    -0.001138250000000    -0.108975000000000    -0.000000000000000
    -0.000000000000000    -0.000000000000000     0.076853500000000
5 8
     0.012778500000000    -0.005513000000000     0.000000000000000
     0.005438750000000    -0.026888500000000    -0.000000000000000
     0.000000000000000    -0.000000000000000    -0.020823000000000
5 9
    -0.066075250000000     0.009050750000000     0.000965000000000
     0.001946750000000    -0.025286250000000    -0.014384250000000
     0.007296000000000    -0.016513250000000    -0.027338250000000
5 10
    -0.066075250000000     0.009050750000000    -0.000965000000000
     0.001946750000000    -0.025286250000000     0.014384250000000
    -0.007296000000000     0.016513250000000    -0.027338250000000
5 11
    -0.053827750000000    -0.000128000000000     0.002442750000000
    -0.000866250000000    -0.026101250000000     0.012135750000000
     0.002267000000000     0.011711500000000    -0.024278500000000
5 12
    -0.053827750000000    -0.000128000000000    -0.002442750000000
    -0.000866250000000    -0.026101250000000    -0.012135750000000
    -0.002267000000000    -0.011711500000000    -0.024278500000000
5 13
     0.112650250000000     0.013239000000000     0.008547750000000
     0.016211500000000    -0.905209000000000    -1.079334000000000
     0.011043000000000    -1.060911000000000    -0.952783750000000
5 14
     0.112650250000000     0.013239000000000    -0.008547750000000
     0.016211500000000    -0.905209000000000     1.079334000000000
    -0.011043000000000     1.060911000000000    -0.952783750000000
5 15
     0.078434750000000     0.014632000000000    -0.011864000000000
     0.011849250000000    -0.686082250000000     0.771163000000000
    -0.009682750000000     0.762757750000000    -0.654782000000000
5 16
     0.078434750000000     0.014632000000000     0.011864000000000
     0.011849250000000    -0.686082250000000    -0.771163000000000
     0.009682750000000    -0.762757750000000    -0.654782000000000
5 17
    -0.905209000000000     0.016211500000000     1.079334000000000
     0.013239000000000     0.112650250000000    -0.008547750000000
     1.060911000000000    -0.011043000000000    -0.952783750000000
5 18
    -0.905209000000000     0.016211500000000    -1.079334000000000
     0.013239000000000     0.112650250000000     0.008547750000000