phonopy:
  version: "2.38.2"
  frequency_unit_conversion_factor: 15.633302
  symmetry_tolerance: 1.00000e-05
  configuration:
    force_constants: "WRITE"
    dim: "1 1 1"
    full_force_constants: ".true."

physical_unit:
  atomic_mass: "AMU"
  length: "angstrom"
  force: "eV/angstrom"
  force_constants: "eV/angstrom^2"

space_group:
  type: "P4/mmm"
  number: 123
  Hall_symbol: "-P 4 2"

supercell_matrix:
- [   1,   0,   0 ]
- [   0,   1,   0 ]
- [   0,   0,   1 ]

primitive_cell:
  lattice:
  - [     7.270217686245235,     0.000000000000000,     0.000000000000000 ] # a
  - [    -0.000000000000000,     7.270217686245235,     0.000000000000000 ] # b
  - [     0.000000000000000,     0.000000000000000,     7.270217686245235 ] # c
  points:
  - symbol: Cu # 1
    coordinates: [  0.005937558271853,  0.005937558271853,  0.000000000000000 ]
    mass: 63.546000
  - symbol: Cu # 2
    coordinates: [  0.005937558271853,  0.005937558271853,  0.500000000000000 ]
    mass: 63.546000
  - symbol: Cu # 3
    coordinates: [  0.005937558271853,  0.494062441728147,  0.000000000000000 ]
    mass: 63.546000
  - symbol: Cu # 4
    coordinates: [  0.005937558271853,  0.494062441728147,  0.500000000000000 ]
    mass: 63.546000
  - symbol: Cu # 5
    coordinates: [  0.494062441728147,  0.005937558271853,  0.000000000000000 ]
    mass: 63.546000
  - symbol: Cu # 6
    coordinates: [  0.494062441728147,  0.005937558271853,  0.500000000000000 ]
    mass: 63.546000
  - symbol: Cu # 7
    coordinates: [  0.494062441728147,  0.494062441728147,  0.000000000000000 ]
    mass: 63.546000
  - symbol: Cu # 8
    coordinates: [  0.494062441728147,  0.494062441728147,  0.500000000000000 ]
    mass: 63.546000
  - symbol: Cu # 9
    coordinates: [  0.009188329036699,  0.250000000000000,  0.250000000000000 ]
    mass: 63.546000
  - symbol: Cu # 10
    coordinates: [  0.009188329036699,  0.250000000000000,  0.750000000000000 ]
    mass: 63.546000
  - symbol: Cu # 11
    coordinates: [  0.001015023682796,  0.750000000000000,  0.250000000000000 ]
    mass: 63.546000
  - symbol: Cu # 12
    coordinates: [  0.001015023682796,  0.750000000000000,  0.750000000000000 ]
    mass: 63.546000
  - symbol: Cu # 13
    coordinates: [  0.490811670963301,  0.250000000000000,  0.250000000000000 ]
    mass: 63.546000
  - symbol: Cu # 14
    coordinates: [  0.490811670963301,  0.250000000000000,  0.750000000000000 ]
    mass: 63.546000
  - symbol: Cu # 15
    coordinates: [  0.498984976317204,  0.750000000000000,  0.250000000000000 ]
    mass: 63.546000
  - symbol: Cu # 16
    coordinates: [  0.498984976317204,  0.750000000000000,  0.750000000000000 ]
    mass: 63.546000
  - symbol: Cu # 17
    coordinates: [  0.250000000000000,  0.009188329036699,  0.250000000000000 ]
    mass: 63.546000
  - symbol: Cu # 18
    coordinates: [  0.250000000000000,  0.009188329036699,  0.750000000000000 ]
    mass: 63.546000
  - symbol: Cu # 19
    coordinates: [  0.250000000000000,  0.490811670963301,  0.250000000000000 ]
    mass: 63.546000
  - symbol: Cu # 20
    coordinates: [  0.250000000000000,  0.490811670963301,  0.750000000000000 ]
    mass: 63.546000
  - symbol: Cu # 21
    coordinates: [  0.750000000000000,  0.001015023682796,  0.250000000000000 ]
    mass: 63.546000
  - symbol: Cu # 22
    coordinates: [  0.750000000000000,  0.001015023682796,  0.750000000000000 ]
    mass: 63.546000
  - symbol: Cu # 23
    coordinates: [  0.750000000000000,  0.498984976317204,  0.250000000000000 ]
    mass: 63.546000
  - symbol: Cu # 24
    coordinates: [  0.750000000000000,  0.498984976317204,  0.750000000000000 ]
    mass: 63.546000
  - symbol: Cu # 25
    coordinates: [  0.250000000000000,  0.250000000000000,  0.000000000000000 ]
    mass: 63.546000
  - symbol: Cu # 26
    coordinates: [  0.250000000000000,  0.250000000000000,  0.500000000000000 ]
    mass: 63.546000
  - symbol: Ag # 27
    coordinates: [  0.250000000000000,  0.750000000000000,  0.000000000000000 ]
    mass: 107.868200
  - symbol: Ag # 28
    coordinates: [  0.250000000000000,  0.750000000000000,  0.500000000000000 ]
    mass: 107.868200
  - symbol: Ag # 29
    coordinates: [  0.750000000000000,  0.250000000000000,  0.000000000000000 ]
    mass: 107.868200
  - symbol: Ag # 30
    coordinates: [  0.750000000000000,  0.250000000000000,  0.500000000000000 ]
    mass: 107.868200
  - symbol: Ag # 31
    coordinates: [  0.750000000000000,  0.750000000000000,  0.000000000000000 ]
    mass: 107.868200
  - symbol: Ag # 32
    coordinates: [  0.750000000000000,  0.750000000000000,  0.500000000000000 ]
    mass: 107.868200
  reciprocal_lattice: # without 2pi
  - [     0.137547463247481,     0.000000000000000,     0.000000000000000 ] # a*
  - [     0.000000000000000,     0.137547463247481,     0.000000000000000 ] # b*
  - [    -0.000000000000000,    -0.000000000000000,     0.137547463247481 ] # c*

unit_cell:
  lattice:
  - [     7.270217686245235,     0.000000000000000,     0.000000000000000 ] # a
  - [    -0.000000000000000,     7.270217686245235,     0.000000000000000 ] # b
  - [     0.000000000000000,     0.000000000000000,     7.270217686245235 ] # c
  points:
  - symbol: Cu # 1
    coordinates: [  0.005937558271853,  0.005937558271853,  0.000000000000000 ]
    mass: 63.546000
    reduced_to: 1
  - symbol: Cu # 2
    coordinates: [  0.005937558271853,  0.005937558271853,  0.500000000000000 ]
    mass: 63.546000
    reduced_to: 2
  - symbol: Cu # 3
    coordinates: [  0.005937558271853,  0.494062441728147,  0.000000000000000 ]
    mass: 63.546000
    reduced_to: 3
  - symbol: Cu # 4
    coordinates: [  0.005937558271853,  0.494062441728147,  0.500000000000000 ]
    mass: 63.546000
    reduced_to: 4
  - symbol: Cu # 5
    coordinates: [  0.494062441728147,  0.005937558271853,  0.000000000000000 ]
    mass: 63.546000
    reduced_to: 5
  - symbol: Cu # 6
    coordinates: [  0.494062441728147,  0.005937558271853,  0.500000000000000 ]
    mass: 63.546000
    reduced_to: 6
  - symbol: Cu # 7
    coordinates: [  0.494062441728147,  0.494062441728147,  0.000000000000000 ]
    mass: 63.546000
    reduced_to: 7
  - symbol: Cu # 8
    coordinates: [  0.494062441728147,  0.494062441728147,  0.500000000000000 ]
    mass: 63.546000
    reduced_to: 8
  - symbol: Cu # 9
    coordinates: [  0.009188329036699,  0.250000000000000,  0.250000000000000 ]
    mass: 63.546000
    reduced_to: 9
  - symbol: Cu # 10
    coordinates: [  0.009188329036699,  0.250000000000000,  0.750000000000000 ]
    mass: 63.546000
    reduced_to: 10
  - symbol: Cu # 11
    coordinates: [  0.001015023682796,  0.750000000000000,  0.250000000000000 ]
    mass: 63.546000
    reduced_to: 11
  - symbol: Cu # 12
    coordinates: [  0.001015023682796,  0.750000000000000,  0.750000000000000 ]
    mass: 63.546000
    reduced_to: 12
  - symbol: Cu # 13
    coordinates: [  0.490811670963301,  0.250000000000000,  0.250000000000000 ]
    mass: 63.546000
    reduced_to: 13
  - symbol: Cu # 14
    coordinates: [  0.490811670963301,  0.250000000000000,  0.750000000000000 ]
    mass: 63.546000
    reduced_to: 14
  - symbol: Cu # 15
    coordinates: [  0.498984976317204,  0.750000000000000,  0.250000000000000 ]
    mass: 63.546000
    reduced_to: 15
  - symbol: Cu # 16
    coordinates: [  0.498984976317204,  0.750000000000000,  0.750000000000000 ]
    mass: 63.546000
    reduced_to: 16
  - symbol: Cu # 17
    coordinates: [  0.250000000000000,  0.009188329036699,  0.250000000000000 ]
    mass: 63.546000
    reduced_to: 17
  - symbol: Cu # 18
    coordinates: [  0.250000000000000,  0.009188329036699,  0.750000000000000 ]
    mass: 63.546000
    reduced_to: 18
  - symbol: Cu # 19
    coordinates: [  0.250000000000000,  0.490811670963301,  0.250000000000000 ]
    mass: 63.546000
    reduced_to: 19
  - symbol: Cu # 20
    coordinates: [  0.250000000000000,  0.490811670963301,  0.750000000000000 ]
    mass: 63.546000
    reduced_to: 20
  - symbol: Cu # 21
    coordinates: [  0.750000000000000,  0.001015023682796,  0.250000000000000 ]
    mass: 63.546000
    reduced_to: 21
  - symbol: Cu # 22
    coordinates: [  0.750000000000000,  0.001015023682796,  0.750000000000000 ]
    mass: 63.546000
    reduced_to: 22
  - symbol: Cu # 23
    coordinates: [  0.750000000000000,  0.498984976317204,  0.250000000000000 ]
    mass: 63.546000
    reduced_to: 23
  - symbol: Cu # 24
    coordinates: [  0.750000000000000,  0.498984976317204,  0.750000000000000 ]
    mass: 63.546000
    reduced_to: 24
  - symbol: Cu # 25
    coordinates: [  0.250000000000000,  0.250000000000000,  0.000000000000000 ]
    mass: 63.546000
    reduced_to: 25
  - symbol: Cu # 26
    coordinates: [  0.250000000000000,  0.250000000000000,  0.500000000000000 ]
    mass: 63.546000
    reduced_to: 26
  - symbol: Ag # 27
    coordinates: [  0.250000000000000,  0.750000000000000,  0.000000000000000 ]
    mass: 107.868200
    reduced_to: 27
  - symbol: Ag # 28
    coordinates: [  0.250000000000000,  0.750000000000000,  0.500000000000000 ]
    mass: 107.868200
    reduced_to: 28
  - symbol: Ag # 29
    coordinates: [  0.750000000000000,  0.250000000000000,  0.000000000000000 ]
    mass: 107.868200
    reduced_to: 29
  - symbol: Ag # 30
    coordinates: [  0.750000000000000,  0.250000000000000,  0.500000000000000 ]
    mass: 107.868200
    reduced_to: 30
  - symbol: Ag # 31
    coordinates: [  0.750000000000000,  0.750000000000000,  0.000000000000000 ]
    mass: 107.868200
    reduced_to: 31
  - symbol: Ag # 32
    coordinates: [  0.750000000000000,  0.750000000000000,  0.500000000000000 ]
    mass: 107.868200
    reduced_to: 32

supercell:
  lattice:
  - [     7.270217686245235,     0.000000000000000,     0.000000000000000 ] # a
  - [    -0.000000000000000,     7.270217686245235,     0.000000000000000 ] # b
  - [     0.000000000000000,     0.000000000000000,     7.270217686245235 ] # c
  points:
  - symbol: Cu # 1
    coordinates: [  0.005937558271853,  0.005937558271853,  0.000000000000000 ]
    mass: 63.546000
    reduced_to: 1
  - symbol: Cu # 2
    coordinates: [  0.005937558271853,  0.005937558271853,  0.500000000000000 ]
    mass: 63.546000
    reduced_to: 2
  - symbol: Cu # 3
    coordinates: [  0.005937558271853,  0.494062441728147,  0.000000000000000 ]
    mass: 63.546000
    reduced_to: 3
  - symbol: Cu # 4
    coordinates: [  0.005937558271853,  0.494062441728147,  0.500000000000000 ]
    mass: 63.546000
    reduced_to: 4
  - symbol: Cu # 5
    coordinates: [  0.494062441728147,  0.005937558271853,  0.000000000000000 ]
    mass: 63.546000
    reduced_to: 5
  - symbol: Cu # 6
    coordinates: [  0.494062441728147,  0.005937558271853,  0.500000000000000 ]
    mass: 63.546000
    reduced_to: 6
  - symbol: Cu # 7
    coordinates: [  0.494062441728147,  0.494062441728147,  0.000000000000000 ]
    mass: 63.546000
    reduced_to: 7
  - symbol: Cu # 8
    coordinates: [  0.494062441728147,  0.494062441728147,  0.500000000000000 ]
    mass: 63.546000
    reduced_to: 8
  - symbol: Cu # 9
    coordinates: [  0.009188329036699,  0.250000000000000,  0.250000000000000 ]
    mass: 63.546000
    reduced_to: 9
  - symbol: Cu # 10
    coordinates: [  0.009188329036699,  0.250000000000000,  0.750000000000000 ]
    mass: 63.546000
    reduced_to: 10
  - symbol: Cu # 11
    coordinates: [  0.001015023682796,  0.750000000000000,  0.250000000000000 ]
    mass: 63.546000
    reduced_to: 11
  - symbol: Cu # 12
    coordinates: [  0.001015023682796,  0.750000000000000,  0.750000000000000 ]
    mass: 63.546000
    reduced_to: 12
  - symbol: Cu # 13
    coordinates: [  0.490811670963301,  0.250000000000000,  0.250000000000000 ]
    mass: 63.546000
    reduced_to: 13
  - symbol: Cu # 14
    coordinates: [  0.490811670963301,  0.250000000000000,  0.750000000000000 ]
    mass: 63.546000
    reduced_to: 14
  - symbol: Cu # 15
    coordinates: [  0.498984976317204,  0.750000000000000,  0.250000000000000 ]
    mass: 63.546000
    reduced_to: 15
  - symbol: Cu # 16
    coordinates: [  0.498984976317204,  0.750000000000000,  0.750000000000000 ]
    mass: 63.546000
    reduced_to: 16
  - symbol: Cu # 17
    coordinates: [  0.250000000000000,  0.009188329036699,  0.250000000000000 ]
    mass: 63.546000
    reduced_to: 17
  - symbol: Cu # 18
    coordinates: [  0.250000000000000,  0.009188329036699,  0.750000000000000 ]
    mass: 63.546000
    reduced_to: 18
  - symbol: Cu # 19
    coordinates: [  0.250000000000000,  0.490811670963301,  0.250000000000000 ]
    mass: 63.546000
    reduced_to: 19
  - symbol: Cu # 20
    coordinates: [  0.250000000000000,  0.490811670963301,  0.750000000000000 ]
    mass: 63.546000
    reduced_to: 20
  - symbol: Cu # 21
    coordinates: [  0.750000000000000,  0.001015023682796,  0.250000000000000 ]
    mass: 63.546000
    reduced_to: 21
  - symbol: Cu # 22
    coordinates: [  0.750000000000000,  0.001015023682796,  0.750000000000000 ]
    mass: 63.546000
    reduced_to: 22
  - symbol: Cu # 23
    coordinates: [  0.750000000000000,  0.498984976317204,  0.250000000000000 ]
    mass: 63.546000
    reduced_to: 23
  - symbol: Cu # 24
    coordinates: [  0.750000000000000,  0.498984976317204,  0.750000000000000 ]
    mass: 63.546000
    reduced_to: 24
  - symbol: Cu # 25
    coordinates: [  0.250000000000000,  0.250000000000000,  0.000000000000000 ]
    mass: 63.546000
    reduced_to: 25
  - symbol: Cu # 26
    coordinates: [  0.250000000000000,  0.250000000000000,  0.500000000000000 ]
    mass: 63.546000
    reduced_to: 26
  - symbol: Ag # 27
    coordinates: [  0.250000000000000,  0.750000000000000,  0.000000000000000 ]
    mass: 107.868200
    reduced_to: 27
  - symbol: Ag # 28
    coordinates: [  0.250000000000000,  0.750000000000000,  0.500000000000000 ]
    mass: 107.868200
    reduced_to: 28
  - symbol: Ag # 29
    coordinates: [  0.750000000000000,  0.250000000000000,  0.000000000000000 ]
    mass: 107.868200
    reduced_to: 29
  - symbol: Ag # 30
    coordinates: [  0.750000000000000,  0.250000000000000,  0.500000000000000 ]
    mass: 107.868200
    reduced_to: 30
  - symbol: Ag # 31
    coordinates: [  0.750000000000000,  0.750000000000000,  0.000000000000000 ]
    mass: 107.868200
    reduced_to: 31
  - symbol: Ag # 32
    coordinates: [  0.750000000000000,  0.750000000000000,  0.500000000000000 ]
    mass: 107.868200
    reduced_to: 32
