71   
426  

1    
  0.0050000000000001  -0.0086602540378443  -0.0000000000000000
  -0.0135408300    0.0228840000    0.0005346300
   0.0000699200   -0.0013889400    0.0007115900
   0.0011709300   -0.0008383300   -0.0001507800
  -0.0011869000   -0.0006357600   -0.0005477900
   0.0011362400    0.0009579600    0.0005130100
   0.0001516500   -0.0001836900    0.0002830500
  -0.0002679800   -0.0001137700    0.0000830500
   0.0000129800   -0.0002685400   -0.0000191400
  -0.0000272100    0.0003281200    0.0003271600
   0.0000544800    0.0000102800   -0.0001515700
  -0.0001880600    0.0001379500   -0.0006040200
  -0.0000228500   -0.0002290400   -0.0003433800
   0.0003436900   -0.0001620700    0.0004482300
  -0.0000274700    0.0003830600    0.0001367200
   0.0002149100    0.0000932800   -0.0004754900
  -0.0000318700   -0.0000546400   -0.0001291000
  -0.0003261200   -0.0002020700    0.0002908600
  -0.0000327800    0.0000479800   -0.0001732700
   0.0002057900    0.0002827900    0.0013895200
  -0.0001501400    0.0002623700   -0.0017343900
   0.0000926200   -0.0001646800   -0.0001523200
   0.0000849500   -0.0002731400   -0.0000713100
  -0.0000954000    0.0001646400   -0.0000025800
  -0.0000039100    0.0000929200   -0.0002839700
   0.0000183700   -0.0000306700   -0.0001408600
  -0.0001770700   -0.0002048100   -0.0002285900
  -0.0000940700    0.0000734700   -0.0001196100
   0.0002818700    0.0003520200   -0.0001011900
   0.0000338100    0.0002910300    0.0002271400
   0.0000930000   -0.0001550900    0.0003961300
   0.0000374500   -0.0004007900    0.0000586800
  -0.0001480200    0.0001227700    0.0000748200
   0.0000148200   -0.0000250500    0.0000347600
  -0.0001331000   -0.0003440100    0.0000734900
  -0.0001878400    0.0001730600    0.0000576300
  -0.0001578200    0.0002472700    0.0000187200
  -0.0001206600    0.0002482700    0.0000709200
  -0.0001550900    0.0000110700    0.0004232400
   0.0005334300   -0.0000836500    0.0002001000
  -0.0001971100    0.0004096300   -0.0001289900
   0.0000689800    0.0000963800    0.0002495200
   0.0000355100    0.0000067500    0.0000430400
  -0.0004082800   -0.0002069000    0.0000375400
  -0.0000216100   -0.0000290800    0.0000939700
   0.0001435600   -0.0000843400   -0.0001198300
   0.0000210800    0.0001558400    0.0000106100
  -0.0001484300    0.0000923300   -0.0005083400
   0.0003137800   -0.0000204100   -0.0001905600
  -0.0001381600    0.0000240100    0.0004018600
  -0.0000396200    0.0000337500   -0.0002526100
   0.0000337300   -0.0001057800   -0.0001569100
  -0.0001385400   -0.0000676000    0.0001042900
  -0.0000711600    0.0000020700   -0.0000823600
  -0.0003192000   -0.0154098800    0.0056574500
   0.0143313700   -0.0076155700   -0.0060083100
  -0.0003135800    0.0005393800   -0.0000615700
   0.0001401400    0.0001813800   -0.0000283100
   0.0000739000   -0.0001305000   -0.0000681200
  -0.0003862400    0.0000982000   -0.0000248300
  -0.0002429400    0.0005032900    0.0001818400
   0.0000596500    0.0001393900   -0.0000293100
  -0.0003358700    0.0000931400   -0.0000250900
   0.0000642500   -0.0001094800   -0.0001759300
   0.0000976600    0.0000259600    0.0001107500
  -0.0000197700    0.0000424800   -0.0000502000
   0.0000441300   -0.0000213000   -0.0000404500
   0.0000275600   -0.0000450800    0.0002452300
  -0.0000377400    0.0000841200   -0.0000207600
  -0.0000086700    0.0000119200   -0.0000248600
  -0.0000124100   -0.0000477300   -0.0000181200
  -0.0000917200   -0.0000519400   -0.0000447400

1    
 -0.0050000000000001   0.0086602540378443   0.0000000000000000
   0.0130446400   -0.0231691700    0.0005303000
  -0.0001367900    0.0014333400   -0.0001511900
  -0.0011733400    0.0007545400    0.0007063700
   0.0013945800    0.0005046000    0.0005088400
  -0.0011395600   -0.0007161000   -0.0005465200
  -0.0000870800    0.0002280100    0.0002797900
   0.0002695400   -0.0001820800    0.0003188700
  -0.0002180700    0.0001414500   -0.0000209100
  -0.0002327300   -0.0001736900    0.0000830900
   0.0000258500    0.0000561900   -0.0001477900
  -0.0002074900    0.0000851400   -0.0003395000
   0.0000322900   -0.0002369200   -0.0006024200
   0.0003027100   -0.0002111000    0.0001400000
   0.0000351300    0.0003810600    0.0004471200
   0.0001937200    0.0001281000   -0.0004726000
   0.0000172500   -0.0000526200   -0.0001656800
  -0.0003296200   -0.0001827600    0.0002921000
  -0.0000556400    0.0000048900   -0.0001293100
   0.0001407200   -0.0002573900   -0.0017409800
   0.0003449000    0.0000362900    0.0013942000
  -0.0000924400    0.0001546800   -0.0001516900
   0.0000728700   -0.0000461300   -0.0002855800
   0.0000957800   -0.0001644600   -0.0000016800
  -0.0001880600    0.0002056600   -0.0000705800
  -0.0000212700    0.0000367500   -0.0001413200
   0.0000182800   -0.0001184400   -0.0001163700
  -0.0002549200   -0.0000504700   -0.0002320300
   0.0002621300   -0.0001146500    0.0002349700
   0.0004469300    0.0000709000   -0.0001070200
  -0.0000852100    0.0001522400    0.0003939400
   0.0000252300   -0.0001894100    0.0000781500
  -0.0003240800    0.0002361000    0.0000561100
  -0.0000197400    0.0000351500    0.0000344500
   0.0000606200   -0.0002533900    0.0000553900
  -0.0003594600    0.0000523200    0.0000755700
   0.0001341300   -0.0002587400    0.0000193200
  -0.0000656500   -0.0001397200    0.0004189300
   0.0001525000   -0.0002284500    0.0000740000
   0.0002544800   -0.0003774300   -0.0001246000
   0.0001972800    0.0005023200    0.0001983600
   0.0001155600    0.0000138500    0.0002488200
  -0.0000369000   -0.0000035600    0.0000905800
  -0.0003802000   -0.0002527500    0.0000381200
   0.0000231100    0.0000290900    0.0000466100
  -0.0000103200    0.0001772500   -0.0001197100
   0.0000069000   -0.0001822000   -0.0005061600
   0.0001507300   -0.0000649200    0.0000095300
  -0.0000554600   -0.0001287600    0.0004011200
   0.0001407600    0.0002835300   -0.0001925100
   0.0000129200   -0.0000563600   -0.0002520600
  -0.0000392100   -0.0000660100   -0.0000781800
  -0.0001257200   -0.0000831800    0.0001038400
  -0.0000652700    0.0000829600   -0.0001594100
   0.0005643700    0.0162172300   -0.0060139900
  -0.0135023000    0.0074276600    0.0056613000
   0.0003098800   -0.0005410200   -0.0000618100
  -0.0001087100   -0.0003778100   -0.0000297000
  -0.0000725400    0.0001248400   -0.0000681300
   0.0002253400    0.0000298100   -0.0000252900
   0.0003146700   -0.0004634500    0.0001793100
  -0.0000864100   -0.0003360700   -0.0000267600
   0.0001530300   -0.0000173100   -0.0000293100
   0.0000658600    0.0000742000    0.0001146600
  -0.0000617100    0.0001154200   -0.0001768300
   0.0000314800   -0.0000463700   -0.0000485500
   0.0000473900   -0.0000774500   -0.0000177600
  -0.0000263400    0.0000471300    0.0002444400
   0.0000083000    0.0000520300   -0.0000407200
   0.0000015600   -0.0000052800   -0.0000229000
  -0.0000893400   -0.0000591700   -0.0000444300
  -0.0000418300    0.0000100500   -0.0000162400

1    
  0.0050000000000001   0.0086602540378443   0.0000000000000000
  -0.0129118100   -0.0232521500    0.0006208900
  -0.0003040800   -0.0000076300    0.0003927500
  -0.0013329000    0.0005343200    0.0008203700
   0.0012436700    0.0007208000    0.0004110800
   0.0001105000   -0.0001193900   -0.0001139100
   0.0001537900    0.0002293700    0.0002761600
   0.0001044400    0.0012580900   -0.0002388000
   0.0000235500    0.0001453100   -0.0000184500
   0.0010354900   -0.0007862100   -0.0003530700
   0.0000487800    0.0000524800   -0.0001403600
  -0.0002242500    0.0001118100   -0.0004884000
   0.0000188900   -0.0002596000   -0.0006199800
   0.0002849200   -0.0001845000    0.0001604700
   0.0000170300    0.0003490100    0.0003124900
   0.0002148700    0.0001286700   -0.0004712100
   0.0000024500   -0.0000748500   -0.0000101500
  -0.0003108900   -0.0001764100    0.0002890800
  -0.0000700400    0.0000233200    0.0000061200
   0.0001708000   -0.0002600300   -0.0017322700
   0.0001074600    0.0001729400   -0.0001636800
   0.0000054100    0.0001050400   -0.0002493600
   0.0001670100    0.0000119700   -0.0001736700
   0.0000832600   -0.0000612100   -0.0000519000
   0.0000027900    0.0001978900   -0.0000658600
  -0.0002398900   -0.0001132700    0.0014245500
  -0.0001706700   -0.0001094900   -0.0001099900
  -0.0002585600   -0.0001555000   -0.0001691100
   0.0002789500   -0.0001206200    0.0002307900
   0.0002407600    0.0001980000    0.0000556700
   0.0000095200    0.0001048100    0.0003928200
   0.0001195000   -0.0001327800    0.0000686200
  -0.0001400100    0.0002311700    0.0000559900
  -0.0002207900   -0.0001020900   -0.0001464400
  -0.0001323900   -0.0002560600    0.0000446300
  -0.0003718100   -0.0000519300    0.0000560800
  -0.0000969800   -0.0002358600    0.0001011200
  -0.0000526300    0.0000531200    0.0002640100
   0.0001725100   -0.0001938500    0.0000929700
   0.0002621700   -0.0004021400   -0.0001512300
  -0.0000169600    0.0004740200    0.0000091500
   0.0000534700    0.0000053100    0.0002429500
  -0.0000175500   -0.0002064500    0.0002506500
  -0.0003703600   -0.0002312500    0.0000329700
  -0.0001648000    0.0001175600    0.0002304400
   0.0001442100    0.0001781200   -0.0001219200
   0.0000532800    0.0000067400   -0.0002067400
   0.0001878600   -0.0000406400    0.0000498700
  -0.0000252600   -0.0001473600    0.0003657400
  -0.0000003500    0.0001864100    0.0000697200
  -0.0000403800   -0.0000569900   -0.0002483600
   0.0000045500   -0.0002540600   -0.0003773700
  -0.0001290500   -0.0000791600    0.0001044800
  -0.0002079700    0.0001734600   -0.0004190700
  -0.0001200000    0.0164250100   -0.0060896900
  -0.0000930300   -0.0005603400   -0.0000741100
   0.0001247200   -0.0002866800   -0.0000648000
  -0.0003055900   -0.0006277000   -0.0000297600
  -0.0002343100   -0.0000535200   -0.0000634100
  -0.0003952500    0.0000176800   -0.0000253600
   0.0133707800    0.0074285200    0.0058134400
   0.0000646300   -0.0003300800   -0.0000322000
  -0.0000104200    0.0001662000   -0.0000330600
   0.0000573300    0.0000761700    0.0001148000
   0.0000159100    0.0000612600   -0.0000312600
   0.0000043000   -0.0000323100   -0.0000424100
   0.0000194100   -0.0000905500   -0.0000282700
  -0.0000181000    0.0000212900    0.0002731200
  -0.0000404300    0.0000495700   -0.0000405100
   0.0000821800    0.0000464100   -0.0001667300
  -0.0000082900   -0.0000584500   -0.0000427300
  -0.0000253400    0.0000492500   -0.0000283700

1    
 -0.0050000000000001  -0.0086602540378443  -0.0000000000000000
   0.0139622800    0.0229759400    0.0004253200
   0.0002375100    0.0000487100    0.0001662400
   0.0013294100   -0.0006172600   -0.0002662800
  -0.0010455600   -0.0008449900   -0.0004534800
  -0.0001122000    0.0003511700    0.0000796500
  -0.0000899400   -0.0001866000    0.0002824900
  -0.0001050600   -0.0015471800    0.0006318900
  -0.0002191100   -0.0002671000   -0.0000225300
  -0.0012891800    0.0009368100    0.0007572600
   0.0000304900    0.0000116900   -0.0001533500
  -0.0001695800    0.0001110700   -0.0004527200
  -0.0000092600   -0.0002043400   -0.0003224600
   0.0003497800   -0.0001816600    0.0004276400
  -0.0000098800    0.0003997600    0.0002701300
   0.0001924900    0.0000918400   -0.0004733500
  -0.0000164300   -0.0000303000   -0.0002784800
  -0.0003326000   -0.0002007400    0.0002928700
  -0.0000160900    0.0000277200   -0.0003026400
   0.0001636400    0.0002855800    0.0013872200
   0.0000790500    0.0001145100   -0.0001734600
  -0.0000042900   -0.0001145000   -0.0000466600
  -0.0000161100   -0.0003199500   -0.0001761400
  -0.0000837300    0.0000615400    0.0000569000
  -0.0001882200    0.0000874600   -0.0002823400
   0.0002360300    0.0001171200   -0.0016969900
   0.0000183800   -0.0002014100   -0.0002291100
  -0.0000763400    0.0001783400   -0.0001763100
   0.0002620400    0.0003582300   -0.0001031600
   0.0002340600    0.0001625700    0.0000570000
  -0.0000020700   -0.0001074700    0.0003849100
  -0.0000583200   -0.0004546900    0.0000621800
  -0.0003308000    0.0001239300    0.0000688400
   0.0002113300    0.0001082100    0.0002091100
   0.0000615300   -0.0003385100    0.0000781500
  -0.0001723600    0.0002777600    0.0000714900
   0.0001148000    0.0002238800   -0.0000632100
  -0.0001311900    0.0000537900    0.0002227600
  -0.0001741500   -0.0000222300    0.0004002500
   0.0005246100   -0.0000569600    0.0002268600
   0.0000194500    0.0004348700    0.0000613500
   0.0001296500    0.0001038000    0.0002513000
   0.0000169900    0.0002092000   -0.0001192800
  -0.0004157600   -0.0002270200    0.0000431100
   0.0001676900   -0.0001180700   -0.0000919200
  -0.0000136900   -0.0000879300   -0.0001131500
  -0.0000256200   -0.0000312300   -0.0002828400
  -0.0001843200    0.0000665500   -0.0005436800
   0.0002791600    0.0000014000   -0.0001555800
   0.0000029200    0.0001137300    0.0001411300
   0.0000143700    0.0000345400   -0.0002520800
  -0.0000101100    0.0000855500    0.0001442200
  -0.0001298700   -0.0000686700    0.0001037300
   0.0000754200   -0.0000913300    0.0001803100
   0.0002412100   -0.0156060500    0.0057280700
   0.0001792600    0.0007191800    0.0000730700
  -0.0001298800    0.0002859200   -0.0000570700
   0.0003321200    0.0004347100   -0.0000288800
   0.0002346100    0.0000471000   -0.0000722200
   0.0002338000    0.0001049000   -0.0000248700
  -0.0140331100   -0.0077465800   -0.0058021300
  -0.0000880600    0.0001380500   -0.0000242100
  -0.0001677100   -0.0000895900   -0.0000217300
   0.0000724400   -0.0001103200   -0.0001741800
   0.0000219600    0.0000778500   -0.0000313400
   0.0000074500    0.0000282700   -0.0000532500
   0.0000713400   -0.0000081200   -0.0000286800
   0.0000198000   -0.0000190200    0.0002133700
   0.0000107500    0.0000851000   -0.0000195400
  -0.0000880700   -0.0000398900    0.0001196200
  -0.0000917600   -0.0000486600   -0.0000181100
  -0.0001073400   -0.0000899900   -0.0000310900

1    
  0.0000000000000000  -0.0000000000000000   0.0100000000000000
   0.0002360800    0.0001360100   -0.0287042200
   0.0000771700    0.0005901000   -0.0000928400
   0.0005451900   -0.0002297200   -0.0000956400
  -0.0004220700   -0.0002573400   -0.0004132600
  -0.0004308100   -0.0002394400   -0.0004101400
   0.0000372200    0.0000257500    0.0001695900
  -0.0001148800    0.0004120100   -0.0001733700
  -0.0001162600   -0.0000714300   -0.0001385700
   0.0002964900   -0.0003034200   -0.0001689400
   0.0000463600    0.0000375100    0.0002598100
  -0.0002239500   -0.0000380000   -0.0003303400
  -0.0001373900   -0.0001812300   -0.0003312900
   0.0004859600   -0.0001383100    0.0004544300
   0.0001272200    0.0004995200    0.0004519900
   0.0002124500    0.0001149700   -0.0003931900
   0.0000097500   -0.0002117200    0.0000011900
  -0.0003486900   -0.0002045800    0.0003874000
  -0.0001721500    0.0001206800   -0.0000026700
   0.0002052400   -0.0001590000    0.0003933300
  -0.0000352300    0.0002631000    0.0003995800
  -0.0000089200   -0.0000104000   -0.0000327900
   0.0001073400   -0.0001860500   -0.0000527400
  -0.0000177200   -0.0000102400    0.0000859200
  -0.0001047800    0.0001870300   -0.0000514500
   0.0001397100    0.0000844800    0.0004217500
  -0.0000964800   -0.0001607100   -0.0000711900
  -0.0001820600   -0.0000036700   -0.0000751000
   0.0003176600    0.0019311600    0.0005710300
   0.0018325400   -0.0006857900    0.0005631600
   0.0001082600    0.0000588000    0.0005054400
  -0.0000787000   -0.0002570200    0.0001634400
  -0.0002582600    0.0000649600    0.0001601800
  -0.0015740900   -0.0009024900    0.0005606000
  -0.0000335400   -0.0003890600    0.0001371500
  -0.0003504900    0.0001604100    0.0001397900
   0.0000522300    0.0000308100    0.0228370500
  -0.0002503800    0.0002162600    0.0002675300
   0.0000603300   -0.0003254900    0.0002716000
   0.0003796800   -0.0004993900    0.0000852900
  -0.0002400800    0.0005778100    0.0000818200
   0.0000968300    0.0000579300    0.0002265900
   0.0001569600    0.0001620300    0.0000844400
  -0.0003848200   -0.0002240900    0.0000285900
   0.0002183400    0.0000559500    0.0000881000
   0.0000815700    0.0000553000   -0.0004737600
   0.0000225100   -0.0000145700   -0.0003822300
   0.0000046200    0.0000217500   -0.0003843600
   0.0001591400   -0.0000840100   -0.0000254600
   0.0000081400    0.0001847800   -0.0000261100
  -0.0000110000   -0.0000102600   -0.0003253400
  -0.0000138700   -0.0001052600   -0.0002596100
  -0.0001662000   -0.0000949100    0.0000358700
  -0.0000904100    0.0000425700   -0.0002635900
   0.0000676400   -0.0067530600    0.0017869100
  -0.0058106800    0.0034365700    0.0017924300
  -0.0000130100   -0.0000068400   -0.0000893100
   0.0000314700   -0.0001208500   -0.0000541500
   0.0001276100    0.0000701800   -0.0000305400
  -0.0000927200    0.0000888900   -0.0000498000
   0.0057665400    0.0033281800    0.0019533400
  -0.0000205000   -0.0002505700   -0.0000013800
  -0.0002271100    0.0001079900   -0.0000004600
   0.0000698300   -0.0002186200   -0.0004263300
  -0.0001536900    0.0001757000   -0.0004290600
   0.0000083800   -0.0000008000   -0.0000897100
   0.0000424700   -0.0000513700   -0.0000676600
  -0.0000303800   -0.0000169400    0.0002042800
  -0.0000178700    0.0000663800   -0.0000693200
   0.0001837100    0.0001117900   -0.0004364000
  -0.0000486300   -0.0000296800   -0.0000742700
  -0.0000448300   -0.0000310200   -0.0000730400

1    
  0.0000000000000000   0.0000000000000000  -0.0100000000000000
   0.0000128800    0.0000073100    0.0277606100
  -0.0001480300   -0.0005472700    0.0006527800
  -0.0005515000    0.0001441800    0.0006506700
   0.0006305200    0.0001273700    0.0003724800
   0.0004283100    0.0004806800    0.0003749500
   0.0000278600    0.0000193300    0.0003900100
   0.0001201700   -0.0007057600    0.0005717400
  -0.0000850100   -0.0000528500    0.0000966000
  -0.0005532800    0.0004591900    0.0005755500
   0.0000339500    0.0000281000   -0.0005610400
  -0.0001708300    0.0002627400   -0.0006131000
   0.0001482300   -0.0002842300   -0.0006139200
   0.0001566200   -0.0002328000    0.0001330200
  -0.0001202000    0.0002596300    0.0001309300
   0.0001964400    0.0001068900   -0.0005543100
  -0.0000233800    0.0001070800   -0.0002941400
  -0.0003028900   -0.0001772200    0.0001951800
   0.0000862800   -0.0000688600   -0.0002976900
   0.0001377700    0.0001896100   -0.0007411700
   0.0002325800    0.0000293400   -0.0007362100
   0.0000098300    0.0000012400   -0.0002660000
   0.0000485200   -0.0001289600   -0.0002992800
   0.0000178700    0.0000106100   -0.0000837300
  -0.0000848400    0.0001072800   -0.0002980900
  -0.0001477700   -0.0000820600   -0.0006980000
  -0.0000596400   -0.0001573500   -0.0002689200
  -0.0001614400    0.0000268400   -0.0002715600
   0.0002256100   -0.0017005400   -0.0004461700
  -0.0013584500    0.0010495600   -0.0004522600
  -0.0001007800   -0.0000611200    0.0002751800
   0.0001421000   -0.0003315800   -0.0000340400
  -0.0002128500    0.0002928400   -0.0000366800
   0.0015711000    0.0009125000   -0.0004990700
  -0.0000378400   -0.0002056100   -0.0000164900
  -0.0001944900    0.0000655200   -0.0000145600
  -0.0000518300   -0.0000291200   -0.0213994400
   0.0000660000   -0.0001070900    0.0002201700
  -0.0000615500    0.0001101200    0.0002235500
   0.0004069600    0.0000410500   -0.0000104900
   0.0002414300    0.0003313600   -0.0000132100
   0.0000872200    0.0000521700    0.0002693100
  -0.0001579800   -0.0001572000    0.0000474900
  -0.0004016900   -0.0002338200    0.0000467000
  -0.0002153000   -0.0000570100    0.0000506700
   0.0000507600    0.0000368100    0.0002353800
   0.0000058200   -0.0000112600   -0.0001077500
  -0.0000017600    0.0000058900   -0.0001089000
   0.0000973500   -0.0000618100    0.0002395200
  -0.0000038700    0.0001193700    0.0002389600
  -0.0000150100   -0.0000120600   -0.0001740000
   0.0000092400   -0.0000650500    0.0000275600
  -0.0000945000   -0.0000535600    0.0001760600
  -0.0000443000    0.0000423700    0.0000249100
   0.0001121500    0.0068923900   -0.0018285100
   0.0060284100   -0.0033475300   -0.0018243300
   0.0000091500    0.0000055700   -0.0000307000
  -0.0000023200   -0.0000740300   -0.0000013100
  -0.0001273000   -0.0000764900   -0.0001044500
  -0.0000682300    0.0000362300    0.0000023400
  -0.0058231000   -0.0033627900   -0.0016264000
  -0.0000038700    0.0000575400   -0.0000532100
   0.0000482400   -0.0000317600   -0.0000525600
   0.0000602200    0.0001861800    0.0003700400
   0.0001920300   -0.0000361900    0.0003677200
   0.0000039700   -0.0000023400   -0.0000081600
   0.0000491400   -0.0000460800    0.0000098900
   0.0000325700    0.0000197000    0.0002839900
  -0.0000108700    0.0000688500    0.0000082300
  -0.0001911300   -0.0001058800    0.0003925100
  -0.0000519400   -0.0000761700    0.0000122900
  -0.0000875400   -0.0000100400    0.0000128600

2    
  0.0050000000000001  -0.0086602540378443  -0.0000000000000000
   0.0012929900   -0.0007266500   -0.0002281800
  -0.0133090900    0.0233924200    0.0005303000
   0.0001044200   -0.0014459700    0.0007047000
   0.0002169300   -0.0002670000   -0.0000227000
  -0.0013095500   -0.0004512200   -0.0005512500
   0.0011959700    0.0008857400    0.0008244600
   0.0001042900    0.0001100900    0.0003176200
  -0.0003603600   -0.0000314900   -0.0001274300
  -0.0000036900   -0.0001341400    0.0002019000
   0.0000128000    0.0000359500   -0.0000160800
  -0.0001848400    0.0000891700   -0.0004716300
   0.0000160500   -0.0002058300   -0.0006025100
   0.0003260000   -0.0001992500    0.0002919600
   0.0000133900    0.0003924600    0.0004398400
   0.0001722600    0.0001094800   -0.0006218600
   0.0000080400   -0.0000278000   -0.0001623600
  -0.0003423500   -0.0001824400    0.0003057100
  -0.0000343000    0.0000146200   -0.0001468200
   0.0002558700   -0.0001508100   -0.0001723900
   0.0001206100    0.0004074600    0.0013996100
  -0.0002283200    0.0001058400   -0.0017051000
   0.0001686200   -0.0002079700   -0.0002822100
   0.0000056100   -0.0001108600    0.0001106100
  -0.0001812900    0.0003030800   -0.0001760000
   0.0000840700    0.0000629500   -0.0000783500
  -0.0000514700   -0.0001823900   -0.0001752300
  -0.0002554500   -0.0000342000   -0.0002318700
   0.0003571300   -0.0000433000    0.0000706900
   0.0002546200    0.0004131900   -0.0001154800
  -0.0002166700    0.0001083300    0.0005644800
   0.0001220100   -0.0003463500    0.0000754000
  -0.0003322400    0.0003469300    0.0000647700
   0.0000832000    0.0000656100    0.0000140000
  -0.0000162200   -0.0003224000    0.0000639800
  -0.0003673900    0.0000708000    0.0000887200
  -0.0001537700    0.0001131000    0.0002500700
  -0.0002122300    0.0002750500    0.0001616000
  -0.0000181800    0.0000892100    0.0000605900
   0.0003710400   -0.0001818200    0.0000380100
   0.0002192200    0.0004782400    0.0001925600
  -0.0000611500   -0.0000562700    0.0000893000
  -0.0000234700   -0.0000255200    0.0000882400
  -0.0003605500   -0.0002364400    0.0000052700
  -0.0000107100    0.0000072800    0.0000656500
  -0.0000832300    0.0001234600   -0.0003733600
   0.0000917100   -0.0001463000   -0.0002454900
   0.0000052000    0.0001857400    0.0000177900
   0.0001015200   -0.0000281600    0.0001052500
   0.0001820200    0.0002138200   -0.0001919200
  -0.0001572000   -0.0001413200    0.0000506000
  -0.0000064700   -0.0001252400   -0.0000758100
  -0.0000986900   -0.0000948200    0.0000689800
  -0.0000738000    0.0000504600   -0.0001170200
  -0.0002303400    0.0005842800   -0.0000325000
  -0.0004159800   -0.0157591700    0.0057242000
   0.0141706200   -0.0077817200   -0.0059223700
  -0.0003059100   -0.0000653500   -0.0000350400
   0.0001216900    0.0002858700   -0.0000693900
  -0.0000167500   -0.0000715100   -0.0000302800
  -0.0002353900    0.0000558600    0.0001480100
  -0.0005906800    0.0002733600   -0.0001302800
  -0.0000105500    0.0002751400   -0.0000239600
   0.0000392700    0.0000269900   -0.0000294400
   0.0000221600   -0.0000224500   -0.0001745800
   0.0000924500   -0.0000453500    0.0000965800
   0.0000190600   -0.0000340000   -0.0000188500
  -0.0000025400    0.0000213500    0.0002289100
   0.0000199900    0.0000006500   -0.0000320800
  -0.0000288300   -0.0000286800   -0.0000328200
  -0.0000537500   -0.0000466100   -0.0000220500
  -0.0000274400   -0.0000131600   -0.0000156500

2    
 -0.0050000000000001   0.0086602540378443   0.0000000000000000
  -0.0010298000    0.0008780800    0.0006337300
   0.0124208600   -0.0237741600    0.0006684900
  -0.0001045200    0.0013614300   -0.0001508000
  -0.0000119700    0.0001366400   -0.0000156100
   0.0013058800    0.0006890300    0.0005187600
  -0.0011315700   -0.0008419600   -0.0002625300
  -0.0001022600   -0.0004022200    0.0000832300
   0.0001590500   -0.0000948300    0.0000897400
  -0.0002527900    0.0002865500    0.0002062900
   0.0000669700    0.0000291100   -0.0002802500
  -0.0002102400    0.0001338100   -0.0004717600
  -0.0000057800   -0.0002602400   -0.0003428100
   0.0003171100   -0.0001716600    0.0002955000
  -0.0000051000    0.0003665200    0.0001432000
   0.0002372400    0.0001117500   -0.0003260300
  -0.0000216800   -0.0000783700   -0.0001297600
  -0.0003090400   -0.0001997600    0.0002756500
  -0.0000518600    0.0000368600   -0.0001526000
   0.0000856400    0.0001753700   -0.0001771700
   0.0000711700   -0.0001137000   -0.0017374300
   0.0002299000   -0.0001163200    0.0014053200
  -0.0000134100   -0.0001065100   -0.0000730400
  -0.0000055700    0.0001104700   -0.0001138700
  -0.0000073100   -0.0000107100   -0.0001764900
  -0.0000870300   -0.0000580600   -0.0002015600
  -0.0001021200   -0.0001339400   -0.0001706000
  -0.0000859200    0.0000566100   -0.0001182100
   0.0001872500    0.0002769600    0.0000597800
   0.0002234200   -0.0000468700    0.0002332900
   0.0002283700   -0.0001133200    0.0002232600
  -0.0000589700   -0.0002439000    0.0000598200
  -0.0001396800    0.0000103300    0.0000646600
  -0.0000883000   -0.0000572200    0.0000514400
  -0.0000537100   -0.0002742300    0.0000632700
  -0.0001787300    0.0001552500    0.0000430600
   0.0001519900   -0.0001129900   -0.0001181500
   0.0000070500   -0.0001779500    0.0002370000
   0.0000165700   -0.0003060600    0.0004356800
   0.0004174900   -0.0002781900    0.0000381200
  -0.0002178000    0.0004318500   -0.0001229000
   0.0002450300    0.0001660700    0.0004079400
   0.0000222500    0.0000296600    0.0000451700
  -0.0004275300   -0.0002242900    0.0000722800
   0.0000141600   -0.0000078400    0.0000737200
   0.0002148900   -0.0000322500    0.0001364000
  -0.0000637400    0.0001212600   -0.0002499600
  -0.0000005400   -0.0001597500   -0.0005148500
   0.0001553600   -0.0001196200    0.0001045600
  -0.0001787400    0.0000898200    0.0004007300
   0.0001316400    0.0001175200   -0.0005535300
   0.0000020000   -0.0000448700   -0.0001586000
  -0.0001635100   -0.0000546700    0.0001391700
  -0.0000607900    0.0000334800   -0.0001256600
   0.0004110600   -0.0005149800   -0.0000240200
   0.0006441000    0.0166323600   -0.0060716500
  -0.0135020700    0.0074596600    0.0055046800
   0.0003370100   -0.0001300700   -0.0000227900
  -0.0001202300   -0.0002920800   -0.0000655000
  -0.0001429000    0.0001973300   -0.0000193000
   0.0002396200   -0.0000551000    0.0001663700
   0.0006356700   -0.0004227300    0.0001212400
  -0.0001686000   -0.0002004700   -0.0000303500
   0.0000919000   -0.0000611800   -0.0000304900
   0.0000157600    0.0001621000    0.0001088200
  -0.0000807100    0.0000417000   -0.0001962200
   0.0000730200   -0.0000650200   -0.0000389300
   0.0000048300   -0.0000194600    0.0002601100
  -0.0000491600    0.0001348500   -0.0000294900
   0.0000224600    0.0000347600   -0.0000136200
  -0.0000473000   -0.0000611900   -0.0000391800
  -0.0001057500   -0.0000284500   -0.0000447500

2    
  0.0050000000000001   0.0086602540378443   0.0000000000000000
  -0.0011980900    0.0006609500    0.0007553000
  -0.0136335200   -0.0244284300    0.0006068800
  -0.0002722100   -0.0000810400    0.0003970100
   0.0002259900    0.0001357800   -0.0000188100
   0.0011481000    0.0009049800    0.0004093700
   0.0001388100   -0.0002291900    0.0001683200
   0.0011730000   -0.0010099700   -0.0003445900
  -0.0000072300    0.0013211400   -0.0004463300
  -0.0000105600    0.0002854000    0.0002074800
   0.0000542500    0.0000049400   -0.0003001900
  -0.0001847200    0.0001347200   -0.0004731900
  -0.0000206700   -0.0002322000   -0.0004930200
   0.0003378200   -0.0001727800    0.0002942000
  -0.0000209300    0.0003844000    0.0001586700
   0.0002196700    0.0000892500   -0.0004579700
  -0.0000386800   -0.0000582000   -0.0000007900
  -0.0003223600   -0.0002186400    0.0004250100
  -0.0000398400    0.0000357400   -0.0001533900
   0.0001838100    0.0001216000   -0.0002844400
   0.0001091400   -0.0001159200   -0.0017421400
   0.0000181500    0.0000275600   -0.0001560600
   0.0001750400   -0.0001056100   -0.0000727700
   0.0000933700    0.0001609600   -0.0000041400
  -0.0000142900    0.0000932100   -0.0002358400
  -0.0000969300   -0.0001626100   -0.0001413100
  -0.0003209500   -0.0002936100    0.0013977600
  -0.0002743700    0.0000530800   -0.0001200700
   0.0002783700    0.0002239200    0.0000704000
   0.0002544600   -0.0000488600    0.0002369000
   0.0000191000    0.0000253800    0.0003995700
   0.0001229300   -0.0002384500    0.0000681000
  -0.0001508100    0.0001151500    0.0000905400
  -0.0000990300   -0.0001617600    0.0000370000
  -0.0002488200   -0.0004055000   -0.0001078700
  -0.0003745100    0.0001537000    0.0000457600
   0.0001641500   -0.0000797100   -0.0000958300
  -0.0002247600   -0.0001956300    0.0002004400
   0.0000368000   -0.0001194600    0.0002787300
   0.0003650300   -0.0002827900    0.0000376700
  -0.0001954900    0.0004075200   -0.0001565800
   0.0000671500    0.0000827100    0.0002227100
  -0.0001512800    0.0001061000    0.0002296300
  -0.0003389400   -0.0004252200    0.0002288600