135  
3    

1    
  0.0070710678118655   0.0070710678118655   0.0000000000000000
  -0.0506343400   -0.0145362200   -0.0000000000
   0.0018280400   -0.0001922200   -0.0000000000
   0.0018211000   -0.0001990600   -0.0000000000
  -0.0003311800    0.0014207400   -0.0000000000
   0.0003750100    0.0003286700   -0.0000000000
  -0.0000734100   -0.0001365500   -0.0000000000
  -0.0003314700    0.0014140800   -0.0000000000
  -0.0000701200   -0.0001392600   -0.0000000000
   0.0003705300    0.0003283000   -0.0000000000
  -0.0003326100   -0.0013781800   -0.0000025000
   0.0001488100   -0.0001508100    0.0002313100
   0.0001533000   -0.0001517700   -0.0002344900
   0.0000061000    0.0008597500    0.0005918700
   0.0001499400    0.0002063000    0.0001505600
  -0.0001300500   -0.0000617700   -0.0001152900
   0.0000007300    0.0008550900   -0.0005968200
  -0.0001270600   -0.0000635500    0.0001171200
   0.0001530700    0.0002050700   -0.0001594400
  -0.0003326100   -0.0013781800    0.0000025000
   0.0001488100   -0.0001508100   -0.0002313100
   0.0001533000   -0.0001517700    0.0002344900
   0.0000061000    0.0008597500   -0.0005918700
   0.0001499400    0.0002063000   -0.0001505600
  -0.0001300500   -0.0000617700    0.0001152900
   0.0000007300    0.0008550900    0.0005968200
  -0.0001270600   -0.0000635500   -0.0001171200
   0.0001530700    0.0002050700    0.0001594400
  -0.0022980600   -0.0020330500   -0.0000000000
   0.0005344200   -0.0000544300   -0.0000000000
   0.0059965800    0.0057987100   -0.0000000000
   0.0061240200    0.0058894000   -0.0000000000
   0.0005370400   -0.0000569600   -0.0000000000
  -0.0022627800   -0.0020778800   -0.0000000000
  -0.0000478400    0.0005324000   -0.0000000000
   0.0000850400    0.0001029700   -0.0000000000
  -0.0000492100    0.0005333100   -0.0000000000
  -0.0008802700   -0.0003635700   -0.0004211200
   0.0003369700   -0.0000283100   -0.0000577800
   0.0004719800   -0.0000350600   -0.0005961100
   0.0004712400   -0.0000406800    0.0005864100
   0.0003394500   -0.0000326100    0.0000567600
  -0.0008847500   -0.0003683400    0.0004198200
  -0.0000410500    0.0003408600    0.0000088800
   0.0000695800    0.0000652000   -0.0000000200
  -0.0000389500    0.0003433800   -0.0000053800
  -0.0008802700   -0.0003635700    0.0004211200
   0.0003369700   -0.0000283100    0.0000577800
   0.0004719800   -0.0000350600    0.0005961100
   0.0004712400   -0.0000406800   -0.0005864100
   0.0003394500   -0.0000326100   -0.0000567600
  -0.0008847500   -0.0003683400   -0.0004198200
  -0.0000410500    0.0003408600   -0.0000088800
   0.0000695800    0.0000652000    0.0000000200
  -0.0000389500    0.0003433800    0.0000053800
   0.0018856600   -0.0017634500   -0.0039544400
   0.0005378800   -0.0002280800    0.0000011400
   0.0018909600   -0.0017435000    0.0039399100
   0.0003078800    0.0006936100   -0.0002564600
   0.0003374100    0.0001077400   -0.0000170300
  -0.0007096200    0.0005181700    0.0000830500
  -0.0007128600    0.0005187900   -0.0000803000
   0.0003396200    0.0001140800    0.0000135900
   0.0003097000    0.0006967400    0.0002469400
   0.0018856600   -0.0017634500    0.0039544400
   0.0005378800   -0.0002280800   -0.0000011400
   0.0018909600   -0.0017435000   -0.0039399100
   0.0003078800    0.0006936100    0.0002564600
   0.0003374100    0.0001077400    0.0000170300
  -0.0007096200    0.0005181700   -0.0000830500
  -0.0007128600    0.0005187900    0.0000803000
   0.0003396200    0.0001140800   -0.0000135900
   0.0003097000    0.0006967400   -0.0002469400
  -0.0000512500   -0.0002294700   -0.0000000000
   0.0000838300   -0.0001100800   -0.0000000000
  -0.0000478200   -0.0002300200   -0.0000000000
   0.0000306400    0.0001296600   -0.0000000000
   0.0000679900    0.0000603900   -0.0000000000
  -0.0000957900    0.0000995300   -0.0000000000
  -0.0000938000    0.0001012000   -0.0000000000
   0.0000588400    0.0000544200   -0.0000000000
   0.0000248200    0.0001237900   -0.0000000000
   0.0016908300   -0.0000931300   -0.0016220100
  -0.0004074000    0.0006702600    0.0005058400
  -0.0008160000   -0.0003257100   -0.0004881600
   0.0017050100   -0.0000678100    0.0016179300
  -0.0008152200   -0.0003252100    0.0004882500
  -0.0004106500    0.0006696500   -0.0005042300
   0.0001514500   -0.0007358800    0.0000010600
  -0.0000807300   -0.0002745600    0.0000538000
  -0.0000797800   -0.0002738800   -0.0000505800
   0.0016908300   -0.0000931300    0.0016220100
  -0.0004074000    0.0006702600   -0.0005058400
  -0.0008160000   -0.0003257100    0.0004881600
   0.0017050100   -0.0000678100   -0.0016179300
  -0.0008152200   -0.0003252100   -0.0004882500
  -0.0004106500    0.0006696500    0.0005042300
   0.0001514500   -0.0007358800   -0.0000010600
  -0.0000807300   -0.0002745600   -0.0000538000
  -0.0000797800   -0.0002738800    0.0000505800
   0.0001442100    0.0001741000   -0.0000000000
  -0.0000212300    0.0001614300   -0.0000000000
  -0.0001410400    0.0000659700   -0.0000000000
   0.0001492700    0.0001791000   -0.0000000000
  -0.0001374700    0.0000644600   -0.0000000000
  -0.0000218100    0.0001650400   -0.0000000000
   0.0000457100   -0.0003449600   -0.0000000000
  -0.0000213300   -0.0002353700   -0.0000000000
  -0.0000215100   -0.0002383900   -0.0000000000
   0.0152038400    0.0058311100   -0.0000000000
  -0.0013010200    0.0003361100   -0.0000000000
   0.0144746900    0.0058764300   -0.0000000000
  -0.0006221300   -0.0017852800   -0.0000000000
  -0.0004947600   -0.0001691500   -0.0000000000
   0.0010490600   -0.0005070700   -0.0000000000
   0.0010509700   -0.0005033100   -0.0000000000
  -0.0004842200   -0.0001623100   -0.0000000000
  -0.0006185700   -0.0017645000   -0.0000000000
   0.0002109000    0.0011429900   -0.0006322000
  -0.0004843200    0.0002573500    0.0000035800
   0.0002168600    0.0011462100    0.0006349000
  -0.0003512700   -0.0006816700   -0.0004481500
  -0.0003685000   -0.0001295100   -0.0000322100
   0.0008093300   -0.0006660600   -0.0004355300
   0.0008074400   -0.0006538200    0.0004308300
  -0.0003662600   -0.0001309400    0.0000368300
  -0.0003564900   -0.0006762300    0.0004545100
   0.0002109000    0.0011429900    0.0006322000
  -0.0004843200    0.0002573500   -0.0000035800
   0.0002168600    0.0011462100   -0.0006349000
  -0.0003512700   -0.0006816700    0.0004481500
  -0.0003685000   -0.0001295100    0.0000322100
   0.0008093300   -0.0006660600    0.0004355300
   0.0008074400   -0.0006538200   -0.0004308300
  -0.0003662600   -0.0001309400   -0.0000368300
  -0.0003564900   -0.0006762300   -0.0004545100

82   
  0.0100000000000000   0.0000000000000000   0.0000000000000000
   0.0024088100    0.0000040000    0.0000040000
  -0.0008627400   -0.0002879600   -0.0002879600
  -0.0008678600    0.0002889400    0.0002889400
   0.0002108500   -0.0000000000    0.0000023400
  -0.0001053200   -0.0000000000   -0.0000834400
  -0.0001093300   -0.0000000000    0.0000843800
   0.0024088100   -0.0000040000    0.0000040000
  -0.0008627400    0.0002879600   -0.0002879600
  -0.0008678600   -0.0002889400    0.0002889400
   0.0002108500    0.0000023400   -0.0000000000
  -0.0001053200   -0.0000834400   -0.0000000000
  -0.0001093300    0.0000843800   -0.0000000000
   0.0000640600   -0.0000000000   -0.0000000000
  -0.0000150300   -0.0000000000   -0.0000000000
  -0.0000277100   -0.0000000000   -0.0000000000
   0.0002108500   -0.0000023400   -0.0000000000
  -0.0001053200    0.0000834400   -0.0000000000
  -0.0001093300   -0.0000843800   -0.0000000000
   0.0024088100    0.0000040000   -0.0000040000
  -0.0008627400   -0.0002879600    0.0002879600
  -0.0008678600    0.0002889400   -0.0002889400
   0.0002108500   -0.0000000000   -0.0000023400
  -0.0001053200   -0.0000000000    0.0000834400
  -0.0001093300   -0.0000000000   -0.0000843800
   0.0024088100   -0.0000040000   -0.0000040000
  -0.0008627400    0.0002879600    0.0002879600
  -0.0008678600   -0.0002889400   -0.0002889400
  -0.0000859200   -0.0000000000   -0.0022759400
  -0.0010429300   -0.0000000000   -0.0000045800
  -0.0001440300   -0.0000000000    0.0023160600
   0.0002437600   -0.0007051000    0.0000140700
  -0.0003881100   -0.0000013800    0.0000001400
   0.0002431300    0.0007044900   -0.0000141700
   0.0002437600    0.0007051000    0.0000140700
  -0.0003881100    0.0000013800    0.0000001400
   0.0002431300   -0.0007044900   -0.0000141700
   0.0002541900   -0.0000000000   -0.0000000000
  -0.0004885900   -0.0000000000   -0.0000000000
   0.0002521300   -0.0000000000   -0.0000000000
   0.0001581200   -0.0000716900   -0.0000000000
  -0.0003357200    0.0000038500   -0.0000000000
   0.0001602400    0.0000729600   -0.0000000000
   0.0001581200    0.0000716900   -0.0000000000
  -0.0003357200   -0.0000038500   -0.0000000000
   0.0001602400   -0.0000729600   -0.0000000000
  -0.0000859200   -0.0000000000    0.0022759400
  -0.0010429300   -0.0000000000    0.0000045800
  -0.0001440300   -0.0000000000   -0.0023160600
   0.0002437600   -0.0007051000   -0.0000140700
  -0.0003881100   -0.0000013800   -0.0000001400
   0.0002431300    0.0007044900    0.0000141700
   0.0002437600    0.0007051000   -0.0000140700
  -0.0003881100    0.0000013800   -0.0000001400
   0.0002431300   -0.0007044900    0.0000141700
  -0.0000859200   -0.0022759400   -0.0000000000
  -0.0010429300   -0.0000045800   -0.0000000000
  -0.0001440300    0.0023160600   -0.0000000000
   0.0002541900   -0.0000000000   -0.0000000000
  -0.0004885900   -0.0000000000   -0.0000000000
   0.0002521300   -0.0000000000   -0.0000000000
  -0.0000859200    0.0022759400   -0.0000000000
  -0.0010429300    0.0000045800   -0.0000000000
  -0.0001440300   -0.0023160600   -0.0000000000
   0.0002437600    0.0000140700   -0.0007051000
  -0.0003881100    0.0000001400   -0.0000013800
   0.0002431300   -0.0000141700    0.0007044900
   0.0001581200   -0.0000000000   -0.0000716900
  -0.0003357200   -0.0000000000    0.0000038500
   0.0001602400   -0.0000000000    0.0000729600
   0.0002437600   -0.0000140700   -0.0007051000
  -0.0003881100   -0.0000001400   -0.0000013800
   0.0002431300    0.0000141700    0.0007044900
   0.0002437600    0.0000140700    0.0007051000
  -0.0003881100    0.0000001400    0.0000013800
   0.0002431300   -0.0000141700   -0.0007044900
   0.0001581200   -0.0000000000    0.0000716900
  -0.0003357200   -0.0000000000   -0.0000038500
   0.0001602400   -0.0000000000   -0.0000729600
   0.0002437600   -0.0000140700    0.0007051000
  -0.0003881100   -0.0000001400    0.0000013800
   0.0002431300    0.0000141700   -0.0007044900
  -0.0277762800   -0.0000000000   -0.0000000000
   0.0035622900   -0.0000000000   -0.0000000000
   0.0035000600   -0.0000000000   -0.0000000000
  -0.0009135700   -0.0000053800   -0.0000000000
   0.0003950000    0.0003463500   -0.0000000000
   0.0003958800   -0.0003445800   -0.0000000000
  -0.0009135700    0.0000053800   -0.0000000000
   0.0003950000   -0.0003463500   -0.0000000000
   0.0003958800    0.0003445800   -0.0000000000
  -0.0009135700   -0.0000000000   -0.0000053800
   0.0003950000   -0.0000000000    0.0003463500
   0.0003958800   -0.0000000000   -0.0003445800
  -0.0005068800   -0.0000002800   -0.0000002800
   0.0003429400    0.0002660500    0.0002660500
   0.0003421300   -0.0002655800   -0.0002655800
  -0.0005068800    0.0000002800   -0.0000002800
   0.0003429400   -0.0002660500    0.0002660500
   0.0003421300    0.0002655800   -0.0002655800
  -0.0009135700   -0.0000000000    0.0000053800
   0.0003950000   -0.0000000000   -0.0003463500
   0.0003958800   -0.0000000000    0.0003445800
  -0.0005068800   -0.0000002800    0.0000002800
   0.0003429400    0.0002660500   -0.0002660500
   0.0003421300   -0.0002655800    0.0002655800
  -0.0005068800    0.0000002800    0.0000002800
   0.0003429400   -0.0002660500   -0.0002660500
   0.0003421300    0.0002655800    0.0002655800
   0.0021272100    0.0042172600    0.0042172600
   0.0012579000    0.0000052200    0.0000052200
   0.0021347000   -0.0041928700   -0.0041928700
  -0.0003244700   -0.0000000000    0.0000155700
   0.0006287100   -0.0000000000    0.0000024400
  -0.0003219400   -0.0000000000   -0.0000159500
   0.0021272100   -0.0042172600    0.0042172600
   0.0012579000   -0.0000052200    0.0000052200
   0.0021347000    0.0041928700   -0.0041928700
  -0.0003244700    0.0000155700   -0.0000000000
   0.0006287100    0.0000024400   -0.0000000000
  -0.0003219400   -0.0000159500   -0.0000000000
  -0.0002844800   -0.0000000000   -0.0000000000
   0.0006673800   -0.0000000000   -0.0000000000
  -0.0002831000   -0.0000000000   -0.0000000000
  -0.0003244700   -0.0000155700   -0.0000000000
   0.0006287100   -0.0000024400   -0.0000000000
  -0.0003219400    0.0000159500   -0.0000000000
   0.0021272100    0.0042172600   -0.0042172600
   0.0012579000    0.0000052200   -0.0000052200
   0.0021347000   -0.0041928700    0.0041928700
  -0.0003244700   -0.0000000000   -0.0000155700
   0.0006287100   -0.0000000000   -0.0000024400
  -0.0003219400   -0.0000000000    0.0000159500
   0.0021272100   -0.0042172600   -0.0042172600
   0.0012579000   -0.0000052200   -0.0000052200
   0.0021347000    0.0041928700    0.0041928700

109  
  0.0100000000000000   0.0000000000000000   0.0000000000000000
   0.0200792600   -0.0000000000   -0.0000000000
   0.0219118900   -0.0000000000   -0.0000000000
  -0.0018403800   -0.0000000000   -0.0000000000
   0.0003103400    0.0011806100   -0.0000000000
   0.0003051200   -0.0011764500   -0.0000000000
  -0.0006847100    0.0000022000   -0.0000000000
   0.0003103400   -0.0011806100   -0.0000000000
   0.0003051200    0.0011764500   -0.0000000000
  -0.0006847100   -0.0000022000   -0.0000000000
   0.0003103400   -0.0000000000    0.0011806100
   0.0003051200   -0.0000000000   -0.0011764500
  -0.0006847100   -0.0000000000    0.0000022000
   0.0003312400    0.0008167900    0.0008167900
   0.0003214900   -0.0008150500   -0.0008150500
  -0.0005171200    0.0000009500    0.0000009500
   0.0003312400   -0.0008167900    0.0008167900
   0.0003214900    0.0008150500   -0.0008150500
  -0.0005171200   -0.0000009500    0.0000009500
   0.0003103400   -0.0000000000   -0.0011806100
   0.0003051200   -0.0000000000    0.0011764500
  -0.0006847100   -0.0000000000   -0.0000022000
   0.0003312400    0.0008167900   -0.0008167900
   0.0003214900   -0.0008150500    0.0008150500
  -0.0005171200    0.0000009500   -0.0000009500
   0.0003312400   -0.0008167900   -0.0008167900
   0.0003214900    0.0008150500    0.0008150500
  -0.0005171200   -0.0000009500   -0.0000009500
   0.0082893900    0.0000379300   -0.0000000000
  -0.0016118200    0.0009055100   -0.0000000000
  -0.0016121800   -0.0008744300   -0.0000000000
   0.0082893900   -0.0000379300   -0.0000000000
  -0.0016118200   -0.0009055100   -0.0000000000
  -0.0016121800    0.0008744300   -0.0000000000
   0.0004836500   -0.0000000000   -0.0000000000
  -0.0002350800   -0.0000000000   -0.0000000000
  -0.0002336600   -0.0000000000   -0.0000000000
   0.0016207400   -0.0000087800   -0.0000001500
  -0.0009430900    0.0000137100   -0.0006299400
  -0.0009432300   -0.0000188800    0.0006289500
   0.0016207400    0.0000087800   -0.0000001500
  -0.0009430900   -0.0000137100   -0.0006299400
  -0.0009432300    0.0000188800    0.0006289500
   0.0003728800   -0.0000000000    0.0000037300
  -0.0001825400   -0.0000000000   -0.0000410900
  -0.0001813100   -0.0000000000    0.0000482800
   0.0016207400   -0.0000087800    0.0000001500
  -0.0009430900    0.0000137100    0.0006299400
  -0.0009432300   -0.0000188800   -0.0006289500
   0.0016207400    0.0000087800    0.0000001500
  -0.0009430900   -0.0000137100    0.0006299400
  -0.0009432300    0.0000188800   -0.0006289500
   0.0003728800   -0.0000000000   -0.0000037300
  -0.0001825400   -0.0000000000    0.0000410900
  -0.0001813100   -0.0000000000   -0.0000482800
   0.0082893900   -0.0000000000    0.0000379300
  -0.0016118200   -0.0000000000    0.0009055100
  -0.0016121800   -0.0000000000   -0.0008744300
   0.0016207400   -0.0000001500   -0.0000087800
  -0.0009430900   -0.0006299400    0.0000137100
  -0.0009432300    0.0006289500   -0.0000188800
   0.0016207400    0.0000001500   -0.0000087800
  -0.0009430900    0.0006299400    0.0000137100
  -0.0009432300   -0.0006289500   -0.0000188800
   0.0082893900   -0.0000000000   -0.0000379300
  -0.0016118200   -0.0000000000   -0.0009055100
  -0.0016121800   -0.0000000000    0.0008744300
   0.0016207400   -0.0000001500    0.0000087800
  -0.0009430900   -0.0006299400   -0.0000137100
  -0.0009432300    0.0006289500    0.0000188800
   0.0016207400    0.0000001500    0.0000087800
  -0.0009430900    0.0006299400   -0.0000137100
  -0.0009432300   -0.0006289500    0.0000188800
   0.0004836500   -0.0000000000   -0.0000000000
  -0.0002350800   -0.0000000000   -0.0000000000
  -0.0002336600   -0.0000000000   -0.0000000000
   0.0003728800    0.0000037300   -0.0000000000
  -0.0001825400   -0.0000410900   -0.0000000000
  -0.0001813100    0.0000482800   -0.0000000000
   0.0003728800   -0.0000037300   -0.0000000000
  -0.0001825400    0.0000410900   -0.0000000000
  -0.0001813100   -0.0000482800   -0.0000000000
   0.0021352300    0.0041979700    0.0041979700
   0.0021280400   -0.0042144700   -0.0042144700
   0.0012600400   -0.0000024400   -0.0000024400
   0.0021352300   -0.0041979700    0.0041979700
   0.0021280400    0.0042144700   -0.0042144700
   0.0012600400    0.0000024400   -0.0000024400
  -0.0003217600   -0.0000000000    0.0000167500
  -0.0003225600   -0.0000000000   -0.0000183300
   0.0006315000   -0.0000000000    0.0000005200
   0.0021352300    0.0041979700   -0.0041979700
   0.0021280400   -0.0042144700    0.0042144700
   0.0012600400   -0.0000024400    0.0000024400
   0.0021352300   -0.0041979700   -0.0041979700
   0.0021280400    0.0042144700    0.0042144700
   0.0012600400    0.0000024400    0.0000024400
  -0.0003217600   -0.0000000000   -0.0000167500
  -0.0003225600   -0.0000000000    0.0000183300
   0.0006315000   -0.0000000000   -0.0000005200
  -0.0003217600    0.0000167500   -0.0000000000
  -0.0003225600   -0.0000183300   -0.0000000000
   0.0006315000    0.0000005200   -0.0000000000
  -0.0003217600   -0.0000167500   -0.0000000000
  -0.0003225600    0.0000183300   -0.0000000000
   0.0006315000   -0.0000005200   -0.0000000000
  -0.0002842300   -0.0000000000   -0.0000000000
  -0.0002792400   -0.0000000000   -0.0000000000
   0.0006714500   -0.0000000000   -0.0000000000
  -0.0944781000   -0.0000000000   -0.0000000000
   0.0060621600   -0.0000000000   -0.0000000000
   0.0060137800   -0.0000000000   -0.0000000000
  -0.0025007100   -0.0000182100   -0.0000000000
   0.0012294300    0.0008775500   -0.0000000000
   0.0012280000   -0.0008873900   -0.0000000000
  -0.0025007100    0.0000182100   -0.0000000000
   0.0012294300   -0.0008775500   -0.0000000000
   0.0012280000    0.0008873900   -0.0000000000
  -0.0025007100   -0.0000000000   -0.0000182100
   0.0012294300   -0.0000000000    0.0008775500
   0.0012280000   -0.0000000000   -0.0008873900
  -0.0017373300    0.0000015600    0.0000015600
   0.0010938600    0.0007075600    0.0007075600
   0.0010950300   -0.0007031600   -0.0007031600
  -0.0017373300   -0.0000015600    0.0000015600
   0.0010938600   -0.0007075600    0.0007075600
   0.0010950300    0.0007031600   -0.0007031600
  -0.0025007100   -0.0000000000    0.0000182100
   0.0012294300   -0.0000000000   -0.0008775500
   0.0012280000   -0.0000000000    0.0008873900
  -0.0017373300    0.0000015600   -0.0000015600
   0.0010938600    0.0007075600   -0.0007075600
   0.0010950300   -0.0007031600    0.0007031600
  -0.0017373300   -0.0000015600   -0.0000015600
   0.0010938600   -0.0007075600   -0.0007075600
   0.0010950300    0.0007031600    0.0007031600
